
Running Job 1 of 1 /global/homes/e/ewcss/data/with_water/49_18490/pro_0.in
qchem /global/homes/e/ewcss/data/with_water/49_18490/pro_0.in_73481.0 /tmp/qchem73481/ 1
srun -n 1 /global/common/cori/software/qchem/5.1beta/exe/qcprog.exe /global/homes/e/ewcss/data/with_water/49_18490/pro_0.in_73481.0 /tmp/qchem73481/

Process 0 of 1 is on nid11390 - thread support 0
initial socket setup ...start
initial socket setup ...done 
now start server 0 ... 
Check license passed

                  Welcome to Q-Chem
     A Quantum Leap Into The Future Of Chemistry


 Q-Chem 5.1, Q-Chem, Inc., Pleasanton, CA (2018)

 Yihan Shao,  Zhengting Gan,  E. Epifanovsky,  A. T. B. Gilbert,  M. Wormit,  
 J. Kussmann,  A. W. Lange,  A. Behn,  Jia Deng,  Xintian Feng,  D. Ghosh,  
 M. Goldey,  P. R. Horn,  L. D. Jacobson,  I. Kaliman,  T. Kus,  A. Landau,  
 Jie Liu,  E. I. Proynov,  R. M. Richard,  R. P. Steele,  E. J. Sundstrom,  
 H. L. Woodcock III,  P. M. Zimmerman,  D. Zuev,  B. Albrecht,  E. Alguire,  
 S. A. Baeppler,  D. Barton,  Z. Benda,  Y. A. Bernard,  E. J. Berquist,  
 K. B. Bravaya,  H. Burton,  D. Casanova,  Chun-Min Chang,  Yunqing Chen,  
 A. Chien,  K. D. Closser,  M. P. Coons,  S. Coriani,  S. Dasgupta,  
 A. L. Dempwolff,  M. Diedenhofen,  Hainam Do,  R. G. Edgar,  Po-Tung Fang,  
 S. Faraji,  S. Fatehi,  Qingguo Feng,  K. D. Fenk,  J. Fosso-Tande,  
 Qinghui Ge,  A. Ghysels,  G. Gidofalvi,  J. Gomes,  J. Gonthier,  A. Gunina,  
 M. W. D. Hanson-Heine,  P. H. P. Harbach,  A. W. Hauser,  J. E. Herr,  
 E. G. Hohenstein,  Z. C. Holden,  Kerwin Hui,  T.-C. Jagau,  Hyunjun Ji,  
 B. Kaduk,  K. Khistyaev,  Jaehoon Kim,  P. Klunzinger,  K. Koh,  
 D. Kosenkov,  L. Koulias,  T. Kowalczyk,  C. M. Krauter,  A. Kunitsa,  
 Ka Un Lao,  A. Laurent,  K. V. Lawler,  Joonho Lee,  D. Lefrancois,  
 S. Lehtola,  D. S. Levine,  Yi-Pei Li,  You-Sheng Lin,  Fenglai Liu,  
 E. Livshits,  A. Luenser,  P. Manohar,  E. Mansoor,  S. F. Manzer,  
 Shan-Ping Mao,  Yuezhi Mao,  N. Mardirossian,  A. V. Marenich,  
 T. Markovich,  L. A. Martinez-Martinez,  S. A. Maurer,  N. J. Mayhall,  
 S. C. McKenzie,  J.-M. Mewes,  A. F. Morrison,  J. W. Mullinax,  K. Nanda,  
 T. S. Nguyen-Beck,  R. Olivares-Amaya,  J. A. Parkhill,  T. M. Perrine,  
 F. Plasser,  P. Pokhilko,  S. Prager,  A. Prociuk,  E. Ramos,  D. R. Rehn,  
 F. Rob,  M. Schneider,  N. Sergueev,  S. M. Sharada,  S. Sharma,  
 D. W. Small,  T. Stauch,  T. Stein,  Yu-Chuan Su,  A. J. W. Thom,  
 A. Tkatchenko,  T. Tsuchimochi,  N. M. Tubman,  L. Vogt,  M. L. Vidal,  
 O. Vydrov,  M. A. Watson,  J. Wenzel,  M. de Wergifosse,  T. A. Wesolowski,  
 A. White,  J. Witte,  A. Yamada,  Jun Yang,  K. Yao,  S. Yeganeh,  
 S. R. Yost,  Zhi-Qiang You,  A. Zech,  Igor Ying Zhang,  Xing Zhang,  
 Yan Zhao,  Ying Zhu,  B. R. Brooks,  G. K. L. Chan,  C. J. Cramer,  
 M. S. Gordon,  W. J. Hehre,  A. Klamt,  M. W. Schmidt,  C. D. Sherrill,  
 D. G. Truhlar,  A. Aspuru-Guzik,  R. Baer,  A. T. Bell,  N. A. Besley,  
 Jeng-Da Chai,  R. A. DiStasio Jr.,  A. Dreuw,  B. D. Dunietz,  
 T. R. Furlani,  Chao-Ping Hsu,  Yousung Jung,  Jing Kong,  D. S. Lambrecht,  
 WanZhen Liang,  C. Ochsenfeld,  V. A. Rassolov,  L. V. Slipchenko,  
 J. E. Subotnik,  T. Van Voorhis,  J. M. Herbert,  A. I. Krylov,  
 P. M. W. Gill,  M. Head-Gordon

 Contributors to earlier versions of Q-Chem not listed above: 
 R. D. Adamson,  B. Austin,  J. Baker,  G. J. O. Beran,  K. Brandhorst,  
 S. T. Brown,  E. F. C. Byrd,  A. K. Chakraborty,  C.-L. Cheng,  
 Siu Hung Chien,  D. M. Chipman,  D. L. Crittenden,  H. Dachsel,  
 R. J. Doerksen,  A. D. Dutoi,  L. Fusti-Molnar,  W. A. Goddard III,  
 A. Golubeva-Zadorozhnaya,  S. R. Gwaltney,  G. Hawkins,  A. Heyden,  
 S. Hirata,  G. Kedziora,  F. J. Keil,  C. Kelley,  Jihan Kim,  R. A. King,  
 R. Z. Khaliullin,  P. P. Korambath,  W. Kurlancheek,  A. M. Lee,  M. S. Lee,  
 S. V. Levchenko,  Ching Yeh Lin,  D. Liotard,  R. C. Lochan,  I. Lotan,  
 P. E. Maslen,  N. Nair,  D. P. O'Neill,  D. Neuhauser,  E. Neuscamman,  
 C. M. Oana,  R. Olson,  B. Peters,  R. Peverati,  P. A. Pieniazek,  
 Y. M. Rhee,  J. Ritchie,  M. A. Rohrdanz,  E. Rosta,  N. J. Russ,  
 H. F. Schaefer III,  N. E. Schultz,  N. Shenvi,  A. C. Simmonett,  A. Sodt,  
 D. Stuck,  K. S. Thanthiriwatte,  V. Vanovschi,  Tao Wang,  A. Warshel,  
 C. F. Williams,  Q. Wu,  X. Xu,  W. Zhang

 Please cite Q-Chem as follows:
 Y. Shao et al., Mol. Phys. 113, 184-215 (2015)
 DOI: 10.1080/00268976.2014.952696

 Q-Chem 5.1.0 for Intel X86 EM64T Linux

 Parts of Q-Chem use Armadillo 8.300.2 (Tropical Shenanigans).
 http://arma.sourceforge.net/

 Q-Chem begins on Fri Jul  6 11:24:17 2018  

Host: cori02
0

     Scratch files written to /tmp/qchem73481//
 Mar1918  _RNUM -1
 Parallel job on  1  processors
Processing $rem in /global/common/cori/software/qchem/5.1beta/config/preferences.
 MEM_TOTAL  2000 

Checking the input file for inconsistencies... 	...done.

--------------------------------------------------------------
User input:
--------------------------------------------------------------
$molecule
0 1
C      0.0415516930      0.7712256316      0.6868700692
C      0.0413043320     -0.7716464053      0.6864292028
C      1.1654514144      1.0638666809     -0.3642503655
C     -1.3259426414      1.1696623200      0.1499475393
C      1.1651221037     -1.0640385729     -0.3648507682
C     -1.3263171103     -1.1693341021      0.1492703311
O      0.9479578270      0.0002001221     -1.2862070597
C      2.4804055128      0.6653534066      0.2884399855
N     -2.0320556810      0.0003479012     -0.0947194067
O     -1.7352971237      2.2874351433     -0.0482862834
C      2.4801954153     -0.6662967635      0.2880753610
O     -1.7360362803     -2.2868616135     -0.0495918074
H      0.2199564813      1.2521014449      1.6498455446
H      0.2195489412     -1.2531272149      1.6491307411
H      1.0977218374      2.0324358223     -0.8562105233
H      1.0971136057     -2.0323193955     -0.8573398946
H      3.1940513154      1.3470519857      0.7328985074
H     -2.9511444167      0.0006167870     -0.5172062183
H      3.1936399211     -1.3484637349      0.7321398845
$end

$rem
job_type = freq
method = wb97x-d
basis = 6-31g*
max_scf_cycles = 200
gen_scfman = true
scf_algorithm = diis
geom_opt_max_cycles = 200
$end
--------------------------------------------------------------
 ----------------------------------------------------------------
             Standard Nuclear Orientation (Angstroms)
    I     Atom           X                Y                Z
 ----------------------------------------------------------------
    1      C       0.0396082445     0.7714324312     0.6877276399
    2      C       0.0396013341    -0.7714396885     0.6877276311
    3      C       1.1664206440     1.0639482618    -0.3603047265
    4      C      -1.3264291283     1.1695025538     0.1468390875
    5      C       1.1664229375    -1.0639571022    -0.3602970718
    6      C      -1.3264390487    -1.1694939963     0.1468302217
    7      O       0.9516913196    -0.0000155862    -1.2825662959
    8      C       2.4795917166     0.6658264459     0.2962031248
    9      N      -2.0316684835     0.0000082381    -0.0994823422
   10      O      -1.7353965680     2.2871548760    -0.0528675595
   11      C       2.4795891068    -0.6658237906     0.2962190133
   12      O      -1.7354228426    -2.2871421267    -0.0528660480
   13      H       0.2152236723     1.2526111939     1.6510644462
   14      H       0.2152065594    -1.2526176010     1.6510654659
   15      H       1.0999277331     2.0323662184    -0.8527309933
   16      H       1.0999528870    -2.0323892016    -0.8526987860
   17      H       3.1918763030     1.3477632123     0.7424761093
   18      H      -2.9495628429     0.0000131615    -0.5245578969
   19      H       3.1918849615    -1.3477526464     0.7424877570
 ----------------------------------------------------------------
 Molecular Point Group                 C1    NOp =  1
 Largest Abelian Subgroup              C1    NOp =  1
 Nuclear Repulsion Energy =   721.3234168252 hartrees
 There are       43 alpha and       43 beta electrons
 Requested basis set is 6-31G(d)
 There are 62 shells and 194 basis functions

 Total QAlloc Memory Limit   2000 MB
 Mega-Array Size       188 MB
 MEM_STATIC part       192 MB
 A cutoff of  1.0D-11 yielded   1725 shell pairs
 There are     17836 function pairs
 
 -------------------------------------------------------
 OpenMP Integral Computing Module                       
 Release: version 1.0, May 2013, Q-Chem Inc. Pittsburgh 
 -------------------------------------------------------
 Integral Job Info:
 Integral job number is                      11
 Integral operator is                         1
 short-range coefficients              22203600
 long-range coefficients              100000000
 Omega coefficients                         200
 if combine SR and LR in K                    1
 Integral screening is                        0
 Integral computing path is                   2
 max size of driver memory is            800000
 size of driver memory is                593474
 size of scratch memory is              2428936
 max col of scratch BK array               1296
 max len of scratch array in speh3          155
 max len of scratch index in speh4           18
 max int batch size is                      520
 min int batch size is                       52
 fixed nKL is                                52
 max L of basis functions is                  2
 order of int derivative is                   0
 number of shells is                         62
 number of basis is                         194
 number of cartesian basis is               194
 number of contracted shell pairs          1725
 number of primitive shell pairs           6678
 maxK2 (contraction) of shell pair           36
 max number of K2 of shell pair               1
 max number of CS2 of shell pair            208
 max number of PS2 of shell pair           1248
 mem total for path MDJ                  562140
 -------------------------------------------------------
 Smallest overlap matrix eigenvalue = 6.89E-04
 Guess from superposition of atomic densities
 Warning:  Energy on first SCF cycle will be non-variational
 SAD guess density has 86.000000 electrons

 -----------------------------------------------------------------------
  General SCF calculation program by
  Eric Jon Sundstrom, Paul Horn, Yuezhi Mao, Dmitri Zuev, Alec White,
  David Stuck, Shaama M.S., Shane Yost, Joonho Lee, David Small,
  Daniel Levine, Susi Lehtola, Hugh Burton, Evgeny Epifanovsky
 -----------------------------------------------------------------------
 Exchange:     0.2220 Hartree-Fock + 1.0000 wB97X-D + LR-HF
 Correlation:  1.0000 wB97X-D
 Using SG-2 standard quadrature grid
 Dispersion:   Grimme D
 using 272 threads for integral computing
 -------------------------------------------------------
 OpenMP Integral computing Module                
 Release: version 1.0, May 2013, Q-Chem Inc. Pittsburgh 
 -------------------------------------------------------
 using 272 threads for integral computing
 -------------------------------------------------------
 OpenMP Integral computing Module                
 Release: version 1.0, May 2013, Q-Chem Inc. Pittsburgh 
 -------------------------------------------------------
 -------------------------------------------------------
 OpenMP BLAS3 based DFT computing Module                
 Release: version 1.0, May 2013, Q-Chem Inc. Pittsburgh 
 -------------------------------------------------------
 A restricted SCF calculation will be
 performed using DIIS
 SCF converges when DIIS error is below 1.0e-08
 ---------------------------------------
  Cycle       Energy         DIIS error
 ---------------------------------------
    1    -592.8969526760      5.94e-02  
    2    -589.0380655716      7.84e-03  
    3    -588.8044182973      1.20e-02  
    4    -589.2759384824      1.14e-03  
    5    -589.2802880179      5.42e-04  
    6    -589.2813275775      1.33e-04  
    7    -589.2813988372      4.47e-05  
    8    -589.2814084955      1.18e-05  
    9    -589.2814094322      5.06e-06  
   10    -589.2814095719      1.43e-06  
   11    -589.2814095823      3.90e-07  
   12    -589.2814095833      8.01e-08  
   13    -589.2814095833      2.55e-08  
   14    -589.2814095833      9.58e-09  Convergence criterion met
 ---------------------------------------
 SCF time:   CPU 4770.45s  wall 35.00s 
 SCF   energy in the final basis set =     -589.2814095833
 
 --------------------------------------------------------------
 
                    Orbital Energies (a.u.)
 --------------------------------------------------------------
 
 Alpha MOs
 -- Occupied --
-19.291 -19.265 -19.265 -14.508 -10.427 -10.427 -10.375 -10.375
-10.334 -10.334 -10.319 -10.319  -1.188  -1.171  -1.156  -1.057
 -0.935  -0.894  -0.869  -0.770  -0.735  -0.703  -0.676  -0.667
 -0.644  -0.616  -0.575  -0.558  -0.540  -0.527  -0.520  -0.511
 -0.502  -0.491  -0.479  -0.459  -0.448  -0.432  -0.377  -0.371
 -0.365  -0.346  -0.343
 -- Virtual --
  0.045   0.072   0.096   0.173   0.181   0.200   0.215   0.219
  0.227   0.233   0.243   0.248   0.258   0.290   0.291   0.309
  0.331   0.336   0.369   0.399   0.431   0.438   0.494   0.522
  0.561   0.581   0.602   0.627   0.635   0.635   0.667   0.672
  0.682   0.685   0.718   0.725   0.736   0.739   0.750   0.769
  0.812   0.815   0.833   0.841   0.860   0.891   0.892   0.908
  0.917   0.945   0.950   0.955   0.973   0.984   0.998   0.999
  1.032   1.043   1.082   1.097   1.120   1.129   1.147   1.173
  1.175   1.215   1.257   1.302   1.311   1.362   1.370   1.432
  1.437   1.466   1.496   1.507   1.569   1.599   1.611   1.636
  1.668   1.678   1.772   1.780   1.804   1.812   1.846   1.847
  1.874   1.879   1.898   1.907   1.919   1.964   1.968   1.970
  2.021   2.027   2.034   2.035   2.057   2.131   2.138   2.144
  2.161   2.200   2.229   2.268   2.277   2.300   2.370   2.418
  2.425   2.466   2.468   2.495   2.515   2.543   2.614   2.625
  2.667   2.673   2.683   2.710   2.736   2.776   2.781   2.814
  2.861   2.880   2.882   2.952   2.964   3.005   3.075   3.084
  3.123   3.225   3.278   4.061   4.079   4.189   4.301   4.319
  4.435   4.435   4.624   4.640   4.721   4.897   4.999
 --------------------------------------------------------------
 
          Ground-State Mulliken Net Atomic Charges

     Atom                 Charge (a.u.)
  ----------------------------------------
      1 C                    -0.272406
      2 C                    -0.272405
      3 C                     0.014741
      4 C                     0.647745
      5 C                     0.014746
      6 C                     0.647747
      7 O                    -0.467410
      8 C                    -0.134699
      9 N                    -0.665923
     10 O                    -0.484810
     11 C                    -0.134706
     12 O                    -0.484810
     13 H                     0.212191
     14 H                     0.212191
     15 H                     0.207744
     16 H                     0.207742
     17 H                     0.188143
     18 H                     0.376038
     19 H                     0.188143
  ----------------------------------------
  Sum of atomic charges =    -0.000000

 -----------------------------------------------------------------
                    Cartesian Multipole Moments
 -----------------------------------------------------------------
    Charge (ESU x 10^10)
                -0.0000
    Dipole Moment (Debye)
         X       2.4621      Y       0.0000      Z       2.1919
       Tot       3.2964
    Quadrupole Moments (Debye-Ang)
        XX     -62.5937     XY      -0.0001     YY     -76.6618
        XZ       3.7749     YZ      -0.0000     ZZ     -66.7484
    Octopole Moments (Debye-Ang^2)
       XXX     -15.3216    XXY       0.0004    XYY      37.5020
       YYY      -0.0005    XXZ       1.1332    XYZ      -0.0000
       YYZ      -1.2911    XZZ      -8.7558    YZZ       0.0001
       ZZZ       1.7846
    Hexadecapole Moments (Debye-Ang^3)
      XXXX   -1000.9046   XXXY      -0.0016   XXYY    -330.3551
      XYYY      -0.0001   YYYY    -763.7969   XXXZ      45.2885
      XXYZ      -0.0001   XYYZ      -3.3022   YYYZ       0.0001
      XXZZ    -214.2089   XYZZ       0.0001   YYZZ    -132.1972
      XZZZ       2.1837   YZZZ      -0.0002   ZZZZ    -192.3152
 -----------------------------------------------------------------
 Calculating MO derivatives via CPSCF
 D1JvT checksum  = 1091436 42608.8556634116
 D1KAT checksum  = 2331984 2769.6114032811
 D1JvT checksum  = 1091436 28665.8901492826
 D1KAT checksum  = 2331984 1190.6527159896
   1         3          57      0.172088    0.025713
   2         3          57      0.031659    0.005466
   3         3          57      0.004447    0.000842
   4         3          57      0.000537    0.000101
   5        49          11      0.000030    0.000009
   6        60           0      0.000000    0.000000    Roots Converged
 Time for AOints: 8928.0 s (CPU) 69.5 s (wall)
 ------------------------------------------------------------------------------
                     AOints        : Timing summary (seconds)
 ------------------------------------------------------------------------------
     job step          cpu (% of tot)      sys (% of tot)     wall (% of tot)
 ------------------------------------------------------------------------------
  cpscf_lag         0.2470E+05 (42.9)   0.2437E+00 (41.7)   0.7138E+03 (50.8)
  iterzp            0.2396E+05 (41.6)   0.2390E+00 (40.9)   0.6218E+03 (44.2)
  make_fx           0.0000E+00 ( 0.0)   0.0000E+00 ( 0.0)   0.0000E+00 ( 0.0)
  AOints            0.8928E+04 (15.5)   0.1016E+00 (17.4)   0.6951E+02 ( 4.9)
 ------------------------------------------------------------------------------
   Grand Totals     0.5758E+05          0.5844E+00          0.1406E+04
 ------------------------------------------------------------------------------
 Calculating analytic Hessian of the SCF energy
 Polarizability Matrix (a.u.)
            1           2           3
    1 -88.7808091  -0.0001204  -6.9019569
    2  -0.0001204-100.9353752   0.0001664
    3  -6.9019569   0.0001664 -56.1108570
atom: 0 element: 6
atom: 1 element: 6
atom: 2 element: 6
atom: 3 element: 6
atom: 4 element: 6
atom: 5 element: 6
atom: 6 element: 8
atom: 7 element: 6
atom: 8 element: 7
atom: 9 element: 8
atom: 10 element: 6
atom: 11 element: 8
atom: 12 element: 1
atom: 13 element: 1
atom: 14 element: 1
atom: 15 element: 1
atom: 16 element: 1
atom: 17 element: 1
atom: 18 element: 1
 
 Direct stationary perturbation theory relativistic correction:
 
 rels  =       0.178548595209
 relv  =      -0.901189453112
 rel2e =       0.000000000000
 E_rel =      -0.722640857903
 
 Hessian of the SCF Energy
            1           2           3           4           5           6
    1   0.4655408  -0.0030958   0.0583068  -0.0800213   0.0101381  -0.0030284
    2  -0.0030958   0.4875065   0.1181508  -0.0101390  -0.1545806   0.0021385
    3   0.0583068   0.1181508   0.5605218  -0.0030285  -0.0021383  -0.0831540
    4  -0.0800213  -0.0101390  -0.0030285   0.4655368   0.0030958   0.0583053
    5   0.0101381  -0.1545806  -0.0021383   0.0030958   0.4875051  -0.1181534
    6  -0.0030284   0.0021385  -0.0831540   0.0583053  -0.1181534   0.5605239
    7  -0.0979498  -0.0057522   0.0226868   0.0011652  -0.0205903  -0.0049208
    8  -0.0086898  -0.0742146   0.0153318  -0.0228400  -0.0151587   0.0170751
    9   0.0232827   0.0176267  -0.0831422   0.0022980   0.0246122  -0.0068776
   10  -0.1550467   0.0233609  -0.0353782  -0.0004681   0.0130345   0.0023408
   11   0.0032309  -0.0840219  -0.0002998   0.0271595  -0.0186402   0.0125337
   12  -0.0282658   0.0061623  -0.1063789  -0.0013405   0.0081338  -0.0033746
   13   0.0011652   0.0205906  -0.0049209  -0.0979492   0.0057522   0.0226853
   14   0.0228404  -0.0151593  -0.0170750   0.0086897  -0.0742146  -0.0153316
   15   0.0022982  -0.0246121  -0.0068775   0.0232815  -0.0176267  -0.0831403
   16  -0.0004686  -0.0130347   0.0023408  -0.1550450  -0.0233595  -0.0353784
   17  -0.0271598  -0.0186401  -0.0125343  -0.0032293  -0.0840208   0.0002997
   18  -0.0013407  -0.0081338  -0.0033746  -0.0282647  -0.0061622  -0.1063788
   19   0.0050528   0.0141207   0.0255780   0.0050530  -0.0141208   0.0255788
   20   0.0045872  -0.0140548  -0.0278106  -0.0045871  -0.0140548   0.0278110
   21   0.0105807  -0.0172683  -0.0470279   0.0105811   0.0172687  -0.0470292
   22  -0.0349744   0.0004092   0.0009371  -0.0053591   0.0011121  -0.0009065
   23   0.0062965   0.0045859  -0.0028700   0.0013163  -0.0050520  -0.0046602
   24   0.0151076  -0.0053514   0.0094099   0.0002298   0.0021812   0.0013564
   25  -0.0302175  -0.0237408  -0.0165238  -0.0302170   0.0237411  -0.0165235
   26  -0.0076890   0.0013110  -0.0007017   0.0076895   0.0013104   0.0007021
   27  -0.0190140  -0.0089922   0.0087615  -0.0190141   0.0089923   0.0087614
   28  -0.0060283   0.0382036  -0.0085423  -0.0067610  -0.0002545  -0.0037366
   29   0.0216710  -0.0138492   0.0080907   0.0029867   0.0005766   0.0008537
   30  -0.0093877   0.0163428   0.0137658  -0.0033748  -0.0008389   0.0006980
   31  -0.0053593  -0.0011119  -0.0009064  -0.0349743  -0.0004094   0.0009369
   32  -0.0013162  -0.0050521   0.0046603  -0.0062963   0.0045860   0.0028700
   33   0.0002299  -0.0021813   0.0013564   0.0151074   0.0053518   0.0094101
   34  -0.0067611   0.0002545  -0.0037367  -0.0060289  -0.0382037  -0.0085421
   35  -0.0029866   0.0005766  -0.0008537  -0.0216713  -0.0138486  -0.0080902
   36  -0.0033747   0.0008389   0.0006980  -0.0093881  -0.0163425   0.0137659
   37  -0.0534177  -0.0205813  -0.0470073  -0.0011403   0.0004126   0.0011390
   38  -0.0193196  -0.1021460  -0.1084292  -0.0052041  -0.0075304  -0.0253572
   39  -0.0437720  -0.1102440  -0.2687036   0.0007846   0.0040899   0.0073738
   40  -0.0011402  -0.0004126   0.0011391  -0.0534168   0.0205803  -0.0470053
   41   0.0052038  -0.0075305   0.0253573   0.0193187  -0.1021464   0.1084305
   42   0.0007846  -0.0040900   0.0073738  -0.0437701   0.1102455  -0.2687066
   43   0.0006528  -0.0187777   0.0087102  -0.0022588  -0.0008033   0.0026806
   44  -0.0001682   0.0008419   0.0011239   0.0009999   0.0000848  -0.0003446
   45  -0.0011943   0.0171738  -0.0054674   0.0026772  -0.0006598  -0.0022198
   46  -0.0022589   0.0008033   0.0026805   0.0006526   0.0187780   0.0087100
   47  -0.0009998   0.0000848   0.0003446   0.0001682   0.0008419  -0.0011239
   48   0.0026774   0.0006597  -0.0022198  -0.0011942  -0.0171739  -0.0054672
   49  -0.0008755   0.0001727  -0.0002490   0.0012594   0.0006265   0.0007356
   50   0.0004151  -0.0002974   0.0001351   0.0000854  -0.0001389  -0.0003021
   51  -0.0006442   0.0008154  -0.0007940  -0.0011974  -0.0005096  -0.0004422
   52   0.0008483  -0.0006430  -0.0028218   0.0008483   0.0006430  -0.0028217
   53  -0.0028725  -0.0052213  -0.0007840   0.0028725  -0.0052213   0.0007839
   54  -0.0020485   0.0004547   0.0056949  -0.0020486  -0.0004548   0.0056948
   55   0.0012593  -0.0006265   0.0007355  -0.0008755  -0.0001727  -0.0002490
   56  -0.0000854  -0.0001389   0.0003021  -0.0004152  -0.0002974  -0.0001351
   57  -0.0011973   0.0005095  -0.0004422  -0.0006442  -0.0008154  -0.0007940
            7           8           9          10          11          12
    1  -0.0979498  -0.0086898   0.0232827  -0.1550467   0.0032309  -0.0282658
    2  -0.0057522  -0.0742146   0.0176267   0.0233609  -0.0840219   0.0061623
    3   0.0226868   0.0153318  -0.0831422  -0.0353782  -0.0002998  -0.1063789
    4   0.0011652  -0.0228400   0.0022980  -0.0004681   0.0271595  -0.0013405
    5  -0.0205903  -0.0151587   0.0246122   0.0130345  -0.0186402   0.0081338
    6  -0.0049208   0.0170751  -0.0068776   0.0023408   0.0125337  -0.0033746
    7   0.4074374  -0.0308243   0.0451121  -0.0343265  -0.0066899   0.0178253
    8  -0.0308243   0.7097024  -0.1311027   0.0060384   0.0064217  -0.0073607
    9   0.0451121  -0.1311027   0.4293766   0.0062407  -0.0070618   0.0187416
   10  -0.0343265   0.0060384   0.0062407   0.5658765  -0.1769166   0.1378595
   11  -0.0066899   0.0064217  -0.0070618  -0.1769166   1.0295681  -0.0909256
   12   0.0178253  -0.0073607   0.0187416   0.1378595  -0.0909256   0.2835020
   13  -0.0085701  -0.0007820   0.0099090  -0.0022870   0.0016124   0.0010891
   14   0.0007827  -0.0842189   0.0031139   0.0002749  -0.0038550  -0.0015156
   15   0.0099087  -0.0031127   0.0088878  -0.0022377  -0.0021757  -0.0003291
   16  -0.0022870  -0.0002750  -0.0022377   0.0413778   0.0192558   0.0174753
   17  -0.0016123  -0.0038548   0.0021757  -0.0192569  -0.0830292  -0.0087611
   18   0.0010891   0.0015155  -0.0003291   0.0174755   0.0087605  -0.0007057
   19  -0.0697868  -0.0044344  -0.0161642   0.0021444  -0.0008821  -0.0015934
   20  -0.0179373  -0.1445645  -0.0744497  -0.0058579  -0.0027520  -0.0019551
   21  -0.0221503  -0.0322990  -0.1396091  -0.0048187   0.0013112  -0.0027231
   22  -0.1484019   0.0175718  -0.0452565  -0.0022779  -0.0029029   0.0028849
   23   0.0275110  -0.0963678   0.0225770  -0.0000680  -0.0005940   0.0006629
   24  -0.0401600   0.0155057  -0.0853129   0.0000433   0.0021564  -0.0043892
   25  -0.0008618   0.0003436  -0.0037065  -0.2023259  -0.0711358  -0.0559412
   26   0.0027618  -0.0016197  -0.0037865  -0.0645742  -0.1929945  -0.0193434
   27  -0.0016315  -0.0005147  -0.0052920  -0.0584508  -0.0287625  -0.0774469
   28   0.0044208  -0.0001388  -0.0030502  -0.1964952   0.2251258  -0.0547502
   29  -0.0024666  -0.0028730   0.0042307   0.2366166  -0.6834271   0.1120307
   30  -0.0009647   0.0025889  -0.0032173  -0.0567890   0.1088425  -0.1006727
   31  -0.0026341   0.0328461  -0.0094239   0.0010319  -0.0011016   0.0011021
   32   0.0317654  -0.0206531   0.0161056  -0.0009467  -0.0009245  -0.0006583
   33  -0.0014286   0.0148762  -0.0002535   0.0005552   0.0012369  -0.0001339
   34   0.0008232  -0.0012085  -0.0004287  -0.0067556  -0.0005548  -0.0048003
   35   0.0008562  -0.0007414  -0.0023294   0.0212218   0.0204790   0.0075786
   36   0.0000791  -0.0013077  -0.0003081  -0.0038380   0.0003425   0.0051403
   37   0.0056907   0.0108513   0.0161805  -0.0030493  -0.0152953  -0.0288240
   38   0.0027650   0.0039550   0.0072145  -0.0013647   0.0041140   0.0094660
   39  -0.0052587  -0.0085816  -0.0129339   0.0003433  -0.0066192  -0.0086096
   40   0.0003884   0.0005322   0.0022193  -0.0011513  -0.0005865  -0.0008325
   41   0.0012077  -0.0036405   0.0004513  -0.0033119  -0.0044816   0.0000509
   42   0.0005274  -0.0026913  -0.0016525  -0.0006562  -0.0015046   0.0001481
   43  -0.0536777   0.0168248  -0.0125898   0.0017562  -0.0037253   0.0008209
   44   0.0135255  -0.2716723   0.1140642   0.0002509  -0.0011242   0.0005279
   45  -0.0116563   0.1266222  -0.1190848  -0.0014772   0.0021485  -0.0000377
   46  -0.0005476   0.0005369  -0.0015603   0.0012225   0.0010367   0.0005666
   47   0.0012372  -0.0029065   0.0042795  -0.0003816  -0.0002898  -0.0000955
   48  -0.0016877   0.0034713  -0.0047329  -0.0008690  -0.0005483  -0.0005590
   49  -0.0030263  -0.0144787  -0.0039970   0.0001693   0.0000058   0.0005991
   50   0.0055605   0.0093108   0.0036008  -0.0002510  -0.0000564  -0.0003718
   51  -0.0015296  -0.0074027   0.0001646   0.0002585  -0.0004448   0.0002787
   52  -0.0000482  -0.0001679  -0.0000784  -0.0094074   0.0022581  -0.0034389
   53  -0.0004472   0.0000441  -0.0009292  -0.0276988   0.0158187  -0.0134360
   54  -0.0005278   0.0002727  -0.0008267  -0.0006620   0.0014943  -0.0028223
   55   0.0021923  -0.0017056  -0.0067491   0.0000124   0.0001058  -0.0004362
   56  -0.0016529  -0.0069481  -0.0003926  -0.0001698  -0.0002112  -0.0001900
   57  -0.0053125  -0.0028864   0.0064021   0.0000599  -0.0004842   0.0003720
           13          14          15          16          17          18
    1   0.0011652   0.0228404   0.0022982  -0.0004686  -0.0271598  -0.0013407
    2   0.0205906  -0.0151593  -0.0246121  -0.0130347  -0.0186401  -0.0081338
    3  -0.0049209  -0.0170750  -0.0068775   0.0023408  -0.0125343  -0.0033746
    4  -0.0979492   0.0086897   0.0232815  -0.1550450  -0.0032293  -0.0282647
    5   0.0057522  -0.0742146  -0.0176267  -0.0233595  -0.0840208  -0.0061622
    6   0.0226853  -0.0153316  -0.0831403  -0.0353784   0.0002997  -0.1063788
    7  -0.0085701   0.0007827   0.0099087  -0.0022870  -0.0016123   0.0010891
    8  -0.0007820  -0.0842189  -0.0031127  -0.0002750  -0.0038548   0.0015155
    9   0.0099090   0.0031139   0.0088878  -0.0022377   0.0021757  -0.0003291
   10  -0.0022870   0.0002749  -0.0022377   0.0413778  -0.0192569   0.0174755
   11   0.0016124  -0.0038550  -0.0021757   0.0192558  -0.0830292   0.0087605
   12   0.0010891  -0.0015156  -0.0003291   0.0174753  -0.0087611  -0.0007057
   13   0.4074308   0.0308163   0.0451109  -0.0343262   0.0066904   0.0178250
   14   0.0308163   0.7097195   0.1310871  -0.0060382   0.0064216   0.0073606
   15   0.0451109   0.1310871   0.4293784   0.0062405   0.0070618   0.0187419
   16  -0.0343262  -0.0060382   0.0062405   0.5658802   0.1769229   0.1378583
   17   0.0066904   0.0064216   0.0070618   0.1769229   1.0295653   0.0909208
   18   0.0178250   0.0073606   0.0187419   0.1378583   0.0909208   0.2834991
   19  -0.0697871   0.0044364  -0.0161663   0.0021445   0.0008819  -0.0015934
   20   0.0179392  -0.1445738   0.0744597   0.0058580  -0.0027521   0.0019551
   21  -0.0221527   0.0323084  -0.1396196  -0.0048189  -0.0013111  -0.0027232
   22  -0.0026337  -0.0328460  -0.0094228   0.0010320   0.0011016   0.0011022
   23  -0.0317653  -0.0206532  -0.0161050   0.0009467  -0.0009246   0.0006583
   24  -0.0014284  -0.0148763  -0.0002530   0.0005551  -0.0012369  -0.0001339
   25  -0.0008619  -0.0003436  -0.0037065  -0.2023245   0.0711367  -0.0559406
   26  -0.0027619  -0.0016197   0.0037866   0.0645749  -0.1929960   0.0193429
   27  -0.0016315   0.0005147  -0.0052921  -0.0584501   0.0287624  -0.0774464
   28   0.0008232   0.0012086  -0.0004286  -0.0067559   0.0005551  -0.0048004
   29  -0.0008562  -0.0007414   0.0023295  -0.0212216   0.0204793  -0.0075783
   30   0.0000791   0.0013077  -0.0003081  -0.0038380  -0.0003426   0.0051403
   31  -0.1483980  -0.0175717  -0.0452557  -0.0022779   0.0029028   0.0028849
   32  -0.0275109  -0.0963693  -0.0225776   0.0000680  -0.0005940  -0.0006630
   33  -0.0401579  -0.0155052  -0.0853129   0.0000433  -0.0021564  -0.0043893
   34   0.0044209   0.0001388  -0.0030502  -0.1965024  -0.2251339  -0.0547501
   35   0.0024664  -0.0028730  -0.0042306  -0.2366242  -0.6834234  -0.1120255
   36  -0.0009648  -0.0025889  -0.0032173  -0.0567884  -0.1088367  -0.1006707
   37   0.0003884  -0.0005322   0.0022193  -0.0011512   0.0005865  -0.0008325
   38  -0.0012077  -0.0036403  -0.0004512   0.0033119  -0.0044817  -0.0000509
   39   0.0005273   0.0026913  -0.0016525  -0.0006561   0.0015047   0.0001481
   40   0.0056908  -0.0108515   0.0161804  -0.0030490   0.0152952  -0.0288240
   41  -0.0027650   0.0039551  -0.0072146   0.0013647   0.0041138  -0.0094658
   42  -0.0052587   0.0085816  -0.0129336   0.0003435   0.0066192  -0.0086097
   43  -0.0005476  -0.0005370  -0.0015603   0.0012225  -0.0010367   0.0005666
   44  -0.0012371  -0.0029068  -0.0042794   0.0003816  -0.0002898   0.0000955
   45  -0.0016876  -0.0034714  -0.0047328  -0.0008690   0.0005483  -0.0005590
   46  -0.0536765  -0.0168196  -0.0125866   0.0017564   0.0037252   0.0008208
   47  -0.0135210  -0.2716778  -0.1140602  -0.0002509  -0.0011242  -0.0005279
   48  -0.0116533  -0.1266179  -0.1190795  -0.0014772  -0.0021482  -0.0000377
   49   0.0021923   0.0017055  -0.0067494   0.0000124  -0.0001058  -0.0004362
   50   0.0016529  -0.0069480   0.0003929   0.0001698  -0.0002112   0.0001900
   51  -0.0053125   0.0028867   0.0064021   0.0000599   0.0004842   0.0003721
   52  -0.0000482   0.0001679  -0.0000785  -0.0094073  -0.0022578  -0.0034389
   53   0.0004472   0.0000441   0.0009293   0.0276991   0.0158184   0.0134362
   54  -0.0005278  -0.0002727  -0.0008267  -0.0006617  -0.0014943  -0.0028221
   55  -0.0030261   0.0144785  -0.0039968   0.0001693  -0.0000058   0.0005991
   56  -0.0055604   0.0093109  -0.0036007   0.0002510  -0.0000564   0.0003719
   57  -0.0015296   0.0074026   0.0001647   0.0002585   0.0004447   0.0002787
           19          20          21          22          23          24
    1   0.0050528   0.0045872   0.0105807  -0.0349744   0.0062965   0.0151076
    2   0.0141207  -0.0140548  -0.0172683   0.0004092   0.0045859  -0.0053514
    3   0.0255780  -0.0278106  -0.0470279   0.0009371  -0.0028700   0.0094099
    4   0.0050530  -0.0045871   0.0105811  -0.0053591   0.0013163   0.0002298
    5  -0.0141208  -0.0140548   0.0172687   0.0011121  -0.0050520   0.0021812
    6   0.0255788   0.0278110  -0.0470292  -0.0009065  -0.0046602   0.0013564
    7  -0.0697868  -0.0179373  -0.0221503  -0.1484019   0.0275110  -0.0401600
    8  -0.0044344  -0.1445645  -0.0322990   0.0175718  -0.0963678   0.0155057
    9  -0.0161642  -0.0744497  -0.1396091  -0.0452565   0.0225770  -0.0853129
   10   0.0021444  -0.0058579  -0.0048187  -0.0022779  -0.0000680   0.0000433
   11  -0.0008821  -0.0027520   0.0013112  -0.0029029  -0.0005940   0.0021564
   12  -0.0015934  -0.0019551  -0.0027231   0.0028849   0.0006629  -0.0043892
   13  -0.0697871   0.0179392  -0.0221527  -0.0026337  -0.0317653  -0.0014284
   14   0.0044364  -0.1445738   0.0323084  -0.0328460  -0.0206532  -0.0148763
   15  -0.0161663   0.0744597  -0.1396196  -0.0094228  -0.0161050  -0.0002530
   16   0.0021445   0.0058580  -0.0048189   0.0010320   0.0009467   0.0005551
   17   0.0008819  -0.0027521  -0.0013111   0.0011016  -0.0009246  -0.0012369
   18  -0.0015934   0.0019551  -0.0027232   0.0011022   0.0006583  -0.0001339
   19   0.1799581  -0.0000015   0.0549029  -0.0199565  -0.0187347  -0.0404347
   20  -0.0000015   0.3764586  -0.0000105  -0.0152927  -0.0120605  -0.0177186
   21   0.0549029  -0.0000105   0.4046846  -0.0221706  -0.0147907  -0.0219481
   22  -0.0199565  -0.0152927  -0.0221706   0.4864278   0.1237390   0.1917882
   23  -0.0187347  -0.0120605  -0.0147907   0.1237390   0.8728277   0.0883797
   24  -0.0404347  -0.0177186  -0.0219481   0.1917882   0.0883797   0.2535957
   25  -0.0004412   0.0000000   0.0024734  -0.0014575   0.0008440   0.0010419
   26   0.0000000   0.0041121  -0.0000001   0.0008465   0.0007441   0.0009243
   27   0.0033140  -0.0000000   0.0020047  -0.0009572   0.0001359   0.0012721
   28  -0.0005355   0.0010029   0.0015451   0.0004035   0.0000659   0.0006256
   29   0.0006044   0.0017878  -0.0018925   0.0007551   0.0010256  -0.0007712
   30   0.0000369   0.0000438   0.0012801  -0.0006216  -0.0005211   0.0007415
   31  -0.0199566   0.0152923  -0.0221713  -0.0930513  -0.0022296  -0.0237277
   32   0.0187341  -0.0120594   0.0147909   0.0022278  -0.5611937  -0.0031797
   33  -0.0404355   0.0177180  -0.0219491  -0.0237277   0.0031899  -0.0701697
   34  -0.0005355  -0.0010029   0.0015451  -0.0002189  -0.0003828   0.0001687
   35  -0.0006043   0.0017878   0.0018925   0.0002425  -0.0001323   0.0011211
   36   0.0000369  -0.0000438   0.0012801   0.0002121  -0.0001632   0.0004427
   37  -0.0036567   0.0038509   0.0062869   0.0006597   0.0002033   0.0008992
   38  -0.0015700   0.0010809   0.0018869   0.0007670   0.0003579  -0.0002636
   39   0.0042828  -0.0028340  -0.0040824  -0.0012090   0.0012801   0.0009117
   40  -0.0036568  -0.0038509   0.0062871   0.0002433   0.0000153  -0.0003920
   41   0.0015701   0.0010810  -0.0018870   0.0001726   0.0001660  -0.0001997
   42   0.0042830   0.0028340  -0.0040825  -0.0006196   0.0008566   0.0001969
   43  -0.0003670  -0.0055336   0.0033038   0.0037690   0.0238629  -0.0097910
   44   0.0012818  -0.0222205   0.0092084   0.0007495   0.0005413   0.0008951
   45   0.0022631  -0.0274904   0.0135795   0.0033180   0.0089706  -0.0025410
   46  -0.0003671   0.0055336   0.0033038  -0.0044786  -0.0016713  -0.0028211
   47  -0.0012815  -0.0222202  -0.0092078   0.0008301   0.0002240  -0.0002869
   48   0.0022628   0.0274912   0.0135797  -0.0023766  -0.0010905  -0.0008083
   49  -0.0028290  -0.0025976  -0.0013925  -0.1865255  -0.1255351  -0.0923804
   50   0.0032171   0.0023252   0.0031174  -0.1220415  -0.1755623  -0.0804198
   51  -0.0031472  -0.0030284  -0.0025881  -0.0939720  -0.0830149  -0.0892321
   52   0.0003519  -0.0000000   0.0002577  -0.0000739   0.0001466   0.0001449
   53  -0.0000000   0.0003539  -0.0000000  -0.0000091   0.0000842   0.0003308
   54   0.0001428   0.0000000  -0.0004382  -0.0006232   0.0003489   0.0000217
   55  -0.0028290   0.0025975  -0.0013926   0.0068740  -0.0045609   0.0005309
   56  -0.0032171   0.0023251  -0.0031174   0.0225672  -0.0080161   0.0128098
   57  -0.0031472   0.0030285  -0.0025882   0.0016209  -0.0038442   0.0068396
           25          26          27          28          29          30
    1  -0.0302175  -0.0076890  -0.0190140  -0.0060283   0.0216710  -0.0093877
    2  -0.0237408   0.0013110  -0.0089922   0.0382036  -0.0138492   0.0163428
    3  -0.0165238  -0.0007017   0.0087615  -0.0085423   0.0080907   0.0137658
    4  -0.0302170   0.0076895  -0.0190141  -0.0067610   0.0029867  -0.0033748
    5   0.0237411   0.0013104   0.0089923  -0.0002545   0.0005766  -0.0008389
    6  -0.0165235   0.0007021   0.0087614  -0.0037366   0.0008537   0.0006980
    7  -0.0008618   0.0027618  -0.0016315   0.0044208  -0.0024666  -0.0009647
    8   0.0003436  -0.0016197  -0.0005147  -0.0001388  -0.0028730   0.0025889
    9  -0.0037065  -0.0037865  -0.0052920  -0.0030502   0.0042307  -0.0032173
   10  -0.2023259  -0.0645742  -0.0584508  -0.1964952   0.2366166  -0.0567890
   11  -0.0711358  -0.1929945  -0.0287625   0.2251258  -0.6834271   0.1088425
   12  -0.0559412  -0.0193434  -0.0774469  -0.0547502   0.1120307  -0.1006727
   13  -0.0008619  -0.0027619  -0.0016315   0.0008232  -0.0008562   0.0000791
   14  -0.0003436  -0.0016197   0.0005147   0.0012086  -0.0007414   0.0013077
   15  -0.0037065   0.0037866  -0.0052921  -0.0004286   0.0023295  -0.0003081
   16  -0.2023245   0.0645749  -0.0584501  -0.0067559  -0.0212216  -0.0038380
   17   0.0711367  -0.1929960   0.0287624   0.0005551   0.0204793  -0.0003426
   18  -0.0559406   0.0193429  -0.0774464  -0.0048004  -0.0075783   0.0051403
   19  -0.0004412   0.0000000   0.0033140  -0.0005355   0.0006044   0.0000369
   20   0.0000000   0.0041121  -0.0000000   0.0010029   0.0017878   0.0000438
   21   0.0024734  -0.0000001   0.0020047   0.0015451  -0.0018925   0.0012801
   22  -0.0014575   0.0008465  -0.0009572   0.0004035   0.0007551  -0.0006216
   23   0.0008440   0.0007441   0.0001359   0.0000659   0.0010256  -0.0005211
   24   0.0010419   0.0009243   0.0012721   0.0006256  -0.0007712   0.0007415
   25   0.7860406  -0.0000014   0.3114035   0.0377863   0.0060362   0.0065095
   26  -0.0000014   0.6598129  -0.0000005  -0.0187777  -0.1023655  -0.0032179
   27   0.3114035  -0.0000005   0.1949909   0.0069102   0.0075953   0.0226721
   28   0.0377863  -0.0187777   0.0069102   0.1708572  -0.2523790   0.0629963
   29   0.0060362  -0.1023655   0.0075953  -0.2523790   0.7931340  -0.1245153
   30   0.0065095  -0.0032179   0.0226721   0.0629963  -0.1245153   0.0613529
   31  -0.0014575  -0.0008464  -0.0009572  -0.0002189  -0.0002425   0.0002121
   32  -0.0008440   0.0007440  -0.0001359   0.0003828  -0.0001324   0.0001632
   33   0.0010419  -0.0009243   0.0012721   0.0001686  -0.0011211   0.0004427
   34   0.0377865   0.0187761   0.0069102   0.0017276   0.0031109   0.0010905
   35  -0.0060378  -0.1023655  -0.0075954  -0.0031111  -0.0133834  -0.0006100
   36   0.0065095   0.0032178   0.0226720   0.0010906   0.0006099  -0.0014088
   37  -0.0046968   0.0004514   0.0000214   0.0003307   0.0010866   0.0035855
   38   0.0011039   0.0012928  -0.0000055   0.0004782  -0.0005396  -0.0014225
   39  -0.0013587   0.0005492  -0.0004957  -0.0002125   0.0013609   0.0015862
   40  -0.0046967  -0.0004513   0.0000214   0.0000613   0.0006117   0.0000319
   41  -0.0011038   0.0012928   0.0000056   0.0020324  -0.0003551   0.0002298
   42  -0.0013588  -0.0005492  -0.0004957   0.0005495  -0.0000109  -0.0000769
   43  -0.0003009   0.0009457  -0.0000782   0.0002067   0.0019137  -0.0009068
   44  -0.0001170   0.0003939  -0.0000806  -0.0000847   0.0007833  -0.0004617
   45   0.0003325  -0.0004721   0.0001321  -0.0001607  -0.0017092   0.0003582
   46  -0.0003009  -0.0009457  -0.0000782  -0.0005623   0.0000089  -0.0003741
   47   0.0001170   0.0003939   0.0000806   0.0000747   0.0002136  -0.0000383
   48   0.0003325   0.0004720   0.0001321   0.0004738  -0.0001559   0.0003143
   49   0.0000761  -0.0001347   0.0000157  -0.0000932   0.0001056  -0.0000594
   50  -0.0000424   0.0002064   0.0000269   0.0000626  -0.0000111   0.0000476
   51  -0.0001916   0.0000231  -0.0001119  -0.0001429   0.0002565  -0.0000963
   52  -0.3816055   0.0000017  -0.1683494   0.0008113   0.0017127   0.0016704
   53   0.0000018  -0.0778599   0.0000006   0.0054726  -0.0004308   0.0024258
   54  -0.1742022   0.0000008  -0.0959783   0.0015276   0.0001603  -0.0024364
   55   0.0000761   0.0001347   0.0000157   0.0000216  -0.0000542   0.0001039
   56   0.0000424   0.0002064  -0.0000269   0.0000805   0.0001085  -0.0000239
   57  -0.0001915  -0.0000230  -0.0001119  -0.0000629   0.0002360  -0.0001357
           31          32          33          34          35          36
    1  -0.0053593  -0.0013162   0.0002299  -0.0067611  -0.0029866  -0.0033747
    2  -0.0011119  -0.0050521  -0.0021813   0.0002545   0.0005766   0.0008389
    3  -0.0009064   0.0046603   0.0013564  -0.0037367  -0.0008537   0.0006980
    4  -0.0349743  -0.0062963   0.0151074  -0.0060289  -0.0216713  -0.0093881
    5  -0.0004094   0.0045860   0.0053518  -0.0382037  -0.0138486  -0.0163425
    6   0.0009369   0.0028700   0.0094101  -0.0085421  -0.0080902   0.0137659
    7  -0.0026341   0.0317654  -0.0014286   0.0008232   0.0008562   0.0000791
    8   0.0328461  -0.0206531   0.0148762  -0.0012085  -0.0007414  -0.0013077
    9  -0.0094239   0.0161056  -0.0002535  -0.0004287  -0.0023294  -0.0003081
   10   0.0010319  -0.0009467   0.0005552  -0.0067556   0.0212218  -0.0038380
   11  -0.0011016  -0.0009245   0.0012369  -0.0005548   0.0204790   0.0003425
   12   0.0011021  -0.0006583  -0.0001339  -0.0048003   0.0075786   0.0051403
   13  -0.1483980  -0.0275109  -0.0401579   0.0044209   0.0024664  -0.0009648
   14  -0.0175717  -0.0963693  -0.0155052   0.0001388  -0.0028730  -0.0025889
   15  -0.0452557  -0.0225776  -0.0853129  -0.0030502  -0.0042306  -0.0032173
   16  -0.0022779   0.0000680   0.0000433  -0.1965024  -0.2366242  -0.0567884
   17   0.0029028  -0.0005940  -0.0021564  -0.2251339  -0.6834234  -0.1088367
   18   0.0028849  -0.0006630  -0.0043893  -0.0547501  -0.1120255  -0.1006707
   19  -0.0199566   0.0187341  -0.0404355  -0.0005355  -0.0006043   0.0000369
   20   0.0152923  -0.0120594   0.0177180  -0.0010029   0.0017878  -0.0000438
   21  -0.0221713   0.0147909  -0.0219491   0.0015451   0.0018925   0.0012801
   22  -0.0930513   0.0022278  -0.0237277  -0.0002189   0.0002425   0.0002121
   23  -0.0022296  -0.5611937   0.0031899  -0.0003828  -0.0001323  -0.0001632
   24  -0.0237277  -0.0031797  -0.0701697   0.0001687   0.0011211   0.0004427
   25  -0.0014575  -0.0008440   0.0010419   0.0377865  -0.0060378   0.0065095
   26  -0.0008464   0.0007440  -0.0009243   0.0187761  -0.1023655   0.0032178
   27  -0.0009572  -0.0001359   0.0012721   0.0069102  -0.0075954   0.0226720
   28  -0.0002189   0.0003828   0.0001686   0.0017276  -0.0031111   0.0010906
   29  -0.0002425  -0.0001324  -0.0011211   0.0031109  -0.0133834   0.0006099
   30   0.0002121   0.0001632   0.0004427   0.0010905  -0.0006100  -0.0014088
   31   0.4864285  -0.1237368   0.1917879   0.0004035  -0.0007551  -0.0006216
   32  -0.1237368   0.8728256  -0.0883874  -0.0000659   0.0010256   0.0005211
   33   0.1917879  -0.0883874   0.2535956   0.0006256   0.0007711   0.0007415
   34   0.0004035  -0.0000659   0.0006256   0.1708647   0.2523885   0.0629960
   35  -0.0007551   0.0010256   0.0007711   0.2523885   0.7931297   0.1245093
   36  -0.0006216   0.0005211   0.0007415   0.0629960   0.1245093   0.0613510
   37   0.0002433  -0.0000153  -0.0003920   0.0000613  -0.0006117   0.0000319
   38  -0.0001727   0.0001660   0.0001998  -0.0020325  -0.0003551  -0.0002298
   39  -0.0006196  -0.0008566   0.0001970   0.0005495   0.0000109  -0.0000769
   40   0.0006597  -0.0002033   0.0008991   0.0003307  -0.0010865   0.0035855
   41  -0.0007670   0.0003578   0.0002636  -0.0004782  -0.0005395   0.0014225
   42  -0.0012089  -0.0012801   0.0009117  -0.0002126  -0.0013609   0.0015862
   43  -0.0044787   0.0016713  -0.0028211  -0.0005623  -0.0000089  -0.0003741
   44  -0.0008302   0.0002240   0.0002868  -0.0000747   0.0002136   0.0000383
   45  -0.0023766   0.0010904  -0.0008083   0.0004738   0.0001558   0.0003143
   46   0.0037688  -0.0238634  -0.0097910   0.0002067  -0.0019137  -0.0009067
   47  -0.0007495   0.0005405  -0.0008955   0.0000847   0.0007833   0.0004616
   48   0.0033180  -0.0089712  -0.0025410  -0.0001606   0.0017091   0.0003582
   49   0.0068739   0.0045605   0.0005307   0.0000216   0.0000542   0.0001039
   50  -0.0225670  -0.0080163  -0.0128100  -0.0000805   0.0001084   0.0000239
   51   0.0016217   0.0038451   0.0068398  -0.0000629  -0.0002360  -0.0001357
   52  -0.0000739  -0.0001466   0.0001449   0.0008112  -0.0017127   0.0016704
   53   0.0000091   0.0000842  -0.0003308  -0.0054726  -0.0004308  -0.0024258
   54  -0.0006232  -0.0003489   0.0000217   0.0015276  -0.0001603  -0.0024364
   55  -0.1865290   0.1255355  -0.0923808  -0.0000932  -0.0001056  -0.0000594
   56   0.1220410  -0.1755589   0.0804180  -0.0000626  -0.0000111  -0.0000476
   57  -0.0939714   0.0830120  -0.0892309  -0.0001429  -0.0002565  -0.0000963
           37          38          39          40          41          42
    1  -0.0534177  -0.0193196  -0.0437720  -0.0011402   0.0052038   0.0007846
    2  -0.0205813  -0.1021460  -0.1102440  -0.0004126  -0.0075305  -0.0040900
    3  -0.0470073  -0.1084292  -0.2687036   0.0011391   0.0253573   0.0073738
    4  -0.0011403  -0.0052041   0.0007846  -0.0534168   0.0193187  -0.0437701
    5   0.0004126  -0.0075304   0.0040899   0.0205803  -0.1021464   0.1102455
    6   0.0011390  -0.0253572   0.0073738  -0.0470053   0.1084305  -0.2687066
    7   0.0056907   0.0027650  -0.0052587   0.0003884   0.0012077   0.0005274
    8   0.0108513   0.0039550  -0.0085816   0.0005322  -0.0036405  -0.0026913
    9   0.0161805   0.0072145  -0.0129339   0.0022193   0.0004513  -0.0016525
   10  -0.0030493  -0.0013647   0.0003433  -0.0011513  -0.0033119  -0.0006562
   11  -0.0152953   0.0041140  -0.0066192  -0.0005865  -0.0044816  -0.0015046
   12  -0.0288240   0.0094660  -0.0086096  -0.0008325   0.0000509   0.0001481
   13   0.0003884  -0.0012077   0.0005273   0.0056908  -0.0027650  -0.0052587
   14  -0.0005322  -0.0036403   0.0026913  -0.0108515   0.0039551   0.0085816
   15   0.0022193  -0.0004512  -0.0016525   0.0161804  -0.0072146  -0.0129336
   16  -0.0011512   0.0033119  -0.0006561  -0.0030490   0.0013647   0.0003435
   17   0.0005865  -0.0044817   0.0015047   0.0152952   0.0041138   0.0066192
   18  -0.0008325  -0.0000509   0.0001481  -0.0288240  -0.0094658  -0.0086097
   19  -0.0036567  -0.0015700   0.0042828  -0.0036568   0.0015701   0.0042830
   20   0.0038509   0.0010809  -0.0028340  -0.0038509   0.0010810   0.0028340
   21   0.0062869   0.0018869  -0.0040824   0.0062871  -0.0018870  -0.0040825
   22   0.0006597   0.0007670  -0.0012090   0.0002433   0.0001726  -0.0006196
   23   0.0002033   0.0003579   0.0012801   0.0000153   0.0001660   0.0008566
   24   0.0008992  -0.0002636   0.0009117  -0.0003920  -0.0001997   0.0001969
   25  -0.0046968   0.0011039  -0.0013587  -0.0046967  -0.0011038  -0.0013588
   26   0.0004514   0.0012928   0.0005492  -0.0004513   0.0012928  -0.0005492
   27   0.0000214  -0.0000055  -0.0004957   0.0000214   0.0000056  -0.0004957
   28   0.0003307   0.0004782  -0.0002125   0.0000613   0.0020324   0.0005495
   29   0.0010866  -0.0005396   0.0013609   0.0006117  -0.0003551  -0.0000109
   30   0.0035855  -0.0014225   0.0015862   0.0000319   0.0002298  -0.0000769
   31   0.0002433  -0.0001727  -0.0006196   0.0006597  -0.0007670  -0.0012089
   32  -0.0000153   0.0001660  -0.0008566  -0.0002033   0.0003578  -0.0012801
   33  -0.0003920   0.0001998   0.0001970   0.0008991   0.0002636   0.0009117
   34   0.0000613  -0.0020325   0.0005495   0.0003307  -0.0004782  -0.0002126
   35  -0.0006117  -0.0003551   0.0000109  -0.0010865  -0.0005395  -0.0013609
   36   0.0000319  -0.0002298  -0.0000769   0.0035855   0.0014225   0.0015862
   37   0.0603520   0.0211847   0.0458578   0.0006724  -0.0001181   0.0001119
   38   0.0211847   0.1061403   0.1182337   0.0001181   0.0014435   0.0005860
   39   0.0458578   0.1182337   0.2857661   0.0001119  -0.0005860   0.0003870
   40   0.0006724   0.0001181   0.0001119   0.0603508  -0.0211836   0.0458556
   41  -0.0001181   0.0014435  -0.0005860  -0.0211836   0.1061408  -0.1182351
   42   0.0001119   0.0005860   0.0003870   0.0458556  -0.1182351   0.2857690
   43  -0.0000056   0.0002595   0.0002198  -0.0002352  -0.0006709  -0.0001211
   44  -0.0005378  -0.0002884   0.0004588  -0.0000758   0.0000787   0.0000465
   45  -0.0001015  -0.0002477  -0.0001695   0.0000826   0.0007627   0.0003082
   46  -0.0002352   0.0006709  -0.0001211  -0.0000056  -0.0002595   0.0002197
   47   0.0000758   0.0000787  -0.0000465   0.0005378  -0.0002884  -0.0004588
   48   0.0000826  -0.0007627   0.0003082  -0.0001015   0.0002477  -0.0001694
   49  -0.0002027   0.0000596   0.0003851  -0.0001247  -0.0000430   0.0001496
   50  -0.0000669   0.0000424  -0.0001148   0.0000176   0.0000221  -0.0000135
   51  -0.0000876  -0.0001045  -0.0000233  -0.0000207  -0.0000116  -0.0000405
   52  -0.0007184   0.0001093  -0.0000040  -0.0007184  -0.0001093  -0.0000041
   53  -0.0009271   0.0002879  -0.0003102   0.0009271   0.0002879   0.0003102
   54   0.0008495  -0.0002738   0.0001098   0.0008495   0.0002738   0.0001098
   55  -0.0001247   0.0000430   0.0001496  -0.0002027  -0.0000596   0.0003851
   56  -0.0000176   0.0000221   0.0000135   0.0000669   0.0000424   0.0001148
   57  -0.0000207   0.0000116  -0.0000405  -0.0000876   0.0001045  -0.0000233
           43          44          45          46          47          48
    1   0.0006528  -0.0001682  -0.0011943  -0.0022589  -0.0009998   0.0026774
    2  -0.0187777   0.0008419   0.0171738   0.0008033   0.0000848   0.0006597
    3   0.0087102   0.0011239  -0.0054674   0.0026805   0.0003446  -0.0022198
    4  -0.0022588   0.0009999   0.0026772   0.0006526   0.0001682  -0.0011942
    5  -0.0008033   0.0000848  -0.0006598   0.0187780   0.0008419  -0.0171739
    6   0.0026806  -0.0003446  -0.0022198   0.0087100  -0.0011239  -0.0054672
    7  -0.0536777   0.0135255  -0.0116563  -0.0005476   0.0012372  -0.0016877
    8   0.0168248  -0.2716723   0.1266222   0.0005369  -0.0029065   0.0034713
    9  -0.0125898   0.1140642  -0.1190848  -0.0015603   0.0042795  -0.0047329
   10   0.0017562   0.0002509  -0.0014772   0.0012225  -0.0003816  -0.0008690
   11  -0.0037253  -0.0011242   0.0021485   0.0010367  -0.0002898  -0.0005483
   12   0.0008209   0.0005279  -0.0000377   0.0005666  -0.0000955  -0.0005590
   13  -0.0005476  -0.0012371  -0.0016876  -0.0536765  -0.0135210  -0.0116533
   14  -0.0005370  -0.0029068  -0.0034714  -0.0168196  -0.2716778  -0.1266179
   15  -0.0015603  -0.0042794  -0.0047328  -0.0125866  -0.1140602  -0.1190795
   16   0.0012225   0.0003816  -0.0008690   0.0017564  -0.0002509  -0.0014772
   17  -0.0010367  -0.0002898   0.0005483   0.0037252  -0.0011242  -0.0021482
   18   0.0005666   0.0000955  -0.0005590   0.0008208  -0.0005279  -0.0000377
   19  -0.0003670   0.0012818   0.0022631  -0.0003671  -0.0012815   0.0022628
   20  -0.0055336  -0.0222205  -0.0274904   0.0055336  -0.0222202   0.0274912
   21   0.0033038   0.0092084   0.0135795   0.0033038  -0.0092078   0.0135797
   22   0.0037690   0.0007495   0.0033180  -0.0044786   0.0008301  -0.0023766
   23   0.0238629   0.0005413   0.0089706  -0.0016713   0.0002240  -0.0010905
   24  -0.0097910   0.0008951  -0.0025410  -0.0028211  -0.0002869  -0.0008083
   25  -0.0003009  -0.0001170   0.0003325  -0.0003009   0.0001170   0.0003325
   26   0.0009457   0.0003939  -0.0004721  -0.0009457   0.0003939   0.0004720
   27  -0.0000782  -0.0000806   0.0001321  -0.0000782   0.0000806   0.0001321
   28   0.0002067  -0.0000847  -0.0001607  -0.0005623   0.0000747   0.0004738
   29   0.0019137   0.0007833  -0.0017092   0.0000089   0.0002136  -0.0001559
   30  -0.0009068  -0.0004617   0.0003582  -0.0003741  -0.0000383   0.0003143
   31  -0.0044787  -0.0008302  -0.0023766   0.0037688  -0.0007495   0.0033180
   32   0.0016713   0.0002240   0.0010904  -0.0238634   0.0005405  -0.0089712
   33  -0.0028211   0.0002868  -0.0008083  -0.0097910  -0.0008955  -0.0025410
   34  -0.0005623  -0.0000747   0.0004738   0.0002067   0.0000847  -0.0001606
   35  -0.0000089   0.0002136   0.0001558  -0.0019137   0.0007833   0.0017091
   36  -0.0003741   0.0000383   0.0003143  -0.0009067   0.0004616   0.0003582
   37  -0.0000056  -0.0005378  -0.0001015  -0.0002352   0.0000758   0.0000826
   38   0.0002595  -0.0002884  -0.0002477   0.0006709   0.0000787  -0.0007627
   39   0.0002198   0.0004588  -0.0001695  -0.0001211  -0.0000465   0.0003082
   40  -0.0002352  -0.0000758   0.0000826  -0.0000056   0.0005378  -0.0001015
   41  -0.0006709   0.0000787   0.0007627  -0.0002595  -0.0002884   0.0002477
   42  -0.0001211   0.0000465   0.0003082   0.0002197  -0.0004588  -0.0001694
   43   0.0543363  -0.0148281   0.0102684   0.0005792  -0.0001434   0.0001278
   44  -0.0148281   0.2961555  -0.1228317   0.0001434  -0.0008039   0.0009576
   45   0.0102684  -0.1228317   0.1189813   0.0001278  -0.0009576   0.0011424
   46   0.0005792   0.0001434   0.0001278   0.0543355   0.0148233   0.0102655
   47  -0.0001434  -0.0008039  -0.0009576   0.0148233   0.2961610   0.1228274
   48   0.0001278   0.0009576   0.0011424   0.0102655   0.1228274   0.1189756
   49   0.0003265   0.0005712  -0.0000178  -0.0003456  -0.0000675  -0.0000397
   50  -0.0008453  -0.0001704  -0.0002254  -0.0014415   0.0001580  -0.0005945
   51   0.0003865   0.0002181   0.0000996   0.0011032  -0.0000740   0.0006863
   52  -0.0000699  -0.0000175   0.0000372  -0.0000699   0.0000174   0.0000372
   53  -0.0000092   0.0000012  -0.0000016   0.0000092   0.0000012   0.0000016
   54   0.0000546   0.0000028   0.0000187   0.0000546  -0.0000028   0.0000187
   55  -0.0003456   0.0000675  -0.0000396   0.0003265  -0.0005712  -0.0000178
   56   0.0014415   0.0001581   0.0005945   0.0008453  -0.0001704   0.0002254
   57   0.0011031   0.0000740   0.0006862   0.0003865  -0.0002180   0.0000996
           49          50          51          52          53          54
    1  -0.0008755   0.0004151  -0.0006442   0.0008483  -0.0028725  -0.0020485
    2   0.0001727  -0.0002974   0.0008154  -0.0006430  -0.0052213   0.0004547
    3  -0.0002490   0.0001351  -0.0007940  -0.0028218  -0.0007840   0.0056949
    4   0.0012594   0.0000854  -0.0011974   0.0008483   0.0028725  -0.0020486
    5   0.0006265  -0.0001389  -0.0005096   0.0006430  -0.0052213  -0.0004548
    6   0.0007356  -0.0003021  -0.0004422  -0.0028217   0.0007839   0.0056948
    7  -0.0030263   0.0055605  -0.0015296  -0.0000482  -0.0004472  -0.0005278
    8  -0.0144787   0.0093108  -0.0074027  -0.0001679   0.0000441   0.0002727
    9  -0.0039970   0.0036008   0.0001646  -0.0000784  -0.0009292  -0.0008267
   10   0.0001693  -0.0002510   0.0002585  -0.0094074  -0.0276988  -0.0006620
   11   0.0000058  -0.0000564  -0.0004448   0.0022581   0.0158187   0.0014943
   12   0.0005991  -0.0003718   0.0002787  -0.0034389  -0.0134360  -0.0028223
   13   0.0021923   0.0016529  -0.0053125  -0.0000482   0.0004472  -0.0005278
   14   0.0017055  -0.0069480   0.0028867   0.0001679   0.0000441  -0.0002727
   15  -0.0067494   0.0003929   0.0064021  -0.0000785   0.0009293  -0.0008267
   16   0.0000124   0.0001698   0.0000599  -0.0094073   0.0276991  -0.0006617
   17  -0.0001058  -0.0002112   0.0004842  -0.0022578   0.0158184  -0.0014943
   18  -0.0004362   0.0001900   0.0003721  -0.0034389   0.0134362  -0.0028221
   19  -0.0028290   0.0032171  -0.0031472   0.0003519  -0.0000000   0.0001428
   20  -0.0025976   0.0023252  -0.0030284  -0.0000000   0.0003539   0.0000000
   21  -0.0013925   0.0031174  -0.0025881   0.0002577  -0.0000000  -0.0004382
   22  -0.1865255  -0.1220415  -0.0939720  -0.0000739  -0.0000091  -0.0006232
   23  -0.1255351  -0.1755623  -0.0830149   0.0001466   0.0000842   0.0003489
   24  -0.0923804  -0.0804198  -0.0892321   0.0001449   0.0003308   0.0000217
   25   0.0000761  -0.0000424  -0.0001916  -0.3816055   0.0000018  -0.1742022
   26  -0.0001347   0.0002064   0.0000231   0.0000017  -0.0778599   0.0000008
   27   0.0000157   0.0000269  -0.0001119  -0.1683494   0.0000006  -0.0959783
   28  -0.0000932   0.0000626  -0.0001429   0.0008113   0.0054726   0.0015276
   29   0.0001056  -0.0000111   0.0002565   0.0017127  -0.0004308   0.0001603
   30  -0.0000594   0.0000476  -0.0000963   0.0016704   0.0024258  -0.0024364
   31   0.0068739  -0.0225670   0.0016217  -0.0000739   0.0000091  -0.0006232
   32   0.0045605  -0.0080163   0.0038451  -0.0001466   0.0000842  -0.0003489
   33   0.0005307  -0.0128100   0.0068398   0.0001449  -0.0003308   0.0000217
   34   0.0000216  -0.0000805  -0.0000629   0.0008112  -0.0054726   0.0015276
   35   0.0000542   0.0001084  -0.0002360  -0.0017127  -0.0004308  -0.0001603
   36   0.0001039   0.0000239  -0.0001357   0.0016704  -0.0024258  -0.0024364
   37  -0.0002027  -0.0000669  -0.0000876  -0.0007184  -0.0009271   0.0008495
   38   0.0000596   0.0000424  -0.0001045   0.0001093   0.0002879  -0.0002738
   39   0.0003851  -0.0001148  -0.0000233  -0.0000040  -0.0003102   0.0001098
   40  -0.0001247   0.0000176  -0.0000207  -0.0007184   0.0009271   0.0008495
   41  -0.0000430   0.0000221  -0.0000116  -0.0001093   0.0002879   0.0002738
   42   0.0001496  -0.0000135  -0.0000405  -0.0000041   0.0003102   0.0001098
   43   0.0003265  -0.0008453   0.0003865  -0.0000699  -0.0000092   0.0000546
   44   0.0005712  -0.0001704   0.0002181  -0.0000175   0.0000012   0.0000028
   45  -0.0000178  -0.0002254   0.0000996   0.0000372  -0.0000016   0.0000187
   46  -0.0003456  -0.0014415   0.0011032  -0.0000699   0.0000092   0.0000546
   47  -0.0000675   0.0001580  -0.0000740   0.0000174   0.0000012  -0.0000028
   48  -0.0000397  -0.0005945   0.0006863   0.0000372   0.0000016   0.0000187
   49   0.1843505   0.1356530   0.1002701   0.0000333  -0.0000465  -0.0000530
   50   0.1356530   0.1782806   0.0868024  -0.0000036   0.0000254   0.0000080
   51   0.1002701   0.0868024   0.0828895   0.0000241   0.0000022   0.0000219
   52   0.0000333  -0.0000036   0.0000241   0.3985031  -0.0000020   0.1770248
   53  -0.0000465   0.0000254   0.0000022  -0.0000020   0.0562874  -0.0000007
   54  -0.0000530   0.0000080   0.0000219   0.1770248  -0.0000007   0.0968530
   55  -0.0012928   0.0005058   0.0025845   0.0000333   0.0000465  -0.0000530
   56  -0.0005058   0.0009326  -0.0005071   0.0000036   0.0000254  -0.0000080
   57   0.0025846   0.0005071  -0.0042905   0.0000241  -0.0000022   0.0000219
           55          56          57
    1   0.0012593  -0.0000854  -0.0011973
    2  -0.0006265  -0.0001389   0.0005095
    3   0.0007355   0.0003021  -0.0004422
    4  -0.0008755  -0.0004152  -0.0006442
    5  -0.0001727  -0.0002974  -0.0008154
    6  -0.0002490  -0.0001351  -0.0007940
    7   0.0021923  -0.0016529  -0.0053125
    8  -0.0017056  -0.0069481  -0.0028864
    9  -0.0067491  -0.0003926   0.0064021
   10   0.0000124  -0.0001698   0.0000599
   11   0.0001058  -0.0002112  -0.0004842
   12  -0.0004362  -0.0001900   0.0003720
   13  -0.0030261  -0.0055604  -0.0015296
   14   0.0144785   0.0093109   0.0074026
   15  -0.0039968  -0.0036007   0.0001647
   16   0.0001693   0.0002510   0.0002585
   17  -0.0000058  -0.0000564   0.0004447
   18   0.0005991   0.0003719   0.0002787
   19  -0.0028290  -0.0032171  -0.0031472
   20   0.0025975   0.0023251   0.0030285
   21  -0.0013926  -0.0031174  -0.0025882
   22   0.0068740   0.0225672   0.0016209
   23  -0.0045609  -0.0080161  -0.0038442
   24   0.0005309   0.0128098   0.0068396
   25   0.0000761   0.0000424  -0.0001915
   26   0.0001347   0.0002064  -0.0000230
   27   0.0000157  -0.0000269  -0.0001119
   28   0.0000216   0.0000805  -0.0000629
   29  -0.0000542   0.0001085   0.0002360
   30   0.0001039  -0.0000239  -0.0001357
   31  -0.1865290   0.1220410  -0.0939714
   32   0.1255355  -0.1755589   0.0830120
   33  -0.0923808   0.0804180  -0.0892309
   34  -0.0000932  -0.0000626  -0.0001429
   35  -0.0001056  -0.0000111  -0.0002565
   36  -0.0000594  -0.0000476  -0.0000963
   37  -0.0001247  -0.0000176  -0.0000207
   38   0.0000430   0.0000221   0.0000116
   39   0.0001496   0.0000135  -0.0000405
   40  -0.0002027   0.0000669  -0.0000876
   41  -0.0000596   0.0000424   0.0001045
   42   0.0003851   0.0001148  -0.0000233
   43  -0.0003456   0.0014415   0.0011031
   44   0.0000675   0.0001581   0.0000740
   45  -0.0000396   0.0005945   0.0006862
   46   0.0003265   0.0008453   0.0003865
   47  -0.0005712  -0.0001704  -0.0002180
   48  -0.0000178   0.0002254   0.0000996
   49  -0.0012928  -0.0005058   0.0025846
   50   0.0005058   0.0009326   0.0005071
   51   0.0025845  -0.0005071  -0.0042905
   52   0.0000333   0.0000036   0.0000241
   53   0.0000465   0.0000254  -0.0000022
   54  -0.0000530  -0.0000080   0.0000219
   55   0.1843539  -0.1356526   0.1002701
   56  -0.1356526   0.1782769  -0.0868005
   57   0.1002701  -0.0868005   0.0828886
 Gradient time:  CPU 63931.30 s  wall 2442.76 s
 **********************************************************************
 **                                                                  **
 **                       VIBRATIONAL ANALYSIS                       **
 **                       --------------------                       **
 **                                                                  **
 **        VIBRATIONAL FREQUENCIES (CM**-1) AND NORMAL MODES         **
 **     FORCE CONSTANTS (mDYN/ANGSTROM) AND REDUCED MASSES (AMU)     **
 **                  INFRARED INTENSITIES (KM/MOL)                   **
 **                                                                  **
 **********************************************************************
 

 Mode:                 1                      2                      3
 Frequency:        86.35                 137.85                 182.20
 Force Cnst:      0.0257                 0.1344                 0.1074
 Red. Mass:       5.8524                12.0068                 5.4917
 IR Active:          YES                    YES                    YES
 IR Intens:        0.252                  6.385                  1.410
 Raman Active:       YES                    YES                    YES
               X      Y      Z        X      Y      Z        X      Y      Z
 C         -0.018 -0.046  0.066   -0.004  0.000  0.118    0.018  0.002 -0.181
 C          0.018 -0.046 -0.066   -0.004 -0.000  0.118    0.018 -0.002 -0.181
 C          0.038  0.102  0.187   -0.067  0.002  0.065    0.100  0.001 -0.085
 C          0.030 -0.052 -0.074    0.016 -0.008  0.062   -0.061  0.003  0.003
 C         -0.038  0.102 -0.187   -0.067 -0.002  0.065    0.100 -0.001 -0.085
 C         -0.030 -0.052  0.074    0.016  0.008  0.062   -0.061 -0.003  0.003
 O          0.000  0.262 -0.000   -0.158  0.000  0.080    0.247 -0.000 -0.112
 C          0.017 -0.063  0.128   -0.007 -0.000 -0.065    0.006 -0.000  0.130
 N         -0.000 -0.048  0.000   -0.158  0.000  0.504   -0.165  0.000  0.302
 O          0.094 -0.057 -0.231    0.201 -0.025 -0.408   -0.097 -0.010  0.006
 C         -0.017 -0.063 -0.128   -0.007  0.000 -0.065    0.006  0.000  0.130
 O         -0.094 -0.057  0.231    0.201  0.025 -0.408   -0.097  0.010  0.006
 H         -0.150 -0.129  0.132    0.002  0.010  0.113    0.032 -0.042 -0.158
 H          0.150 -0.129 -0.132    0.002 -0.010  0.113    0.032  0.042 -0.158
 H          0.078  0.185  0.347   -0.117  0.002  0.073    0.171 -0.001 -0.098
 H         -0.078  0.185 -0.347   -0.117 -0.002  0.073    0.171  0.001 -0.098
 H          0.036 -0.169  0.260    0.048  0.000 -0.153   -0.084 -0.003  0.277
 H         -0.000 -0.050  0.000   -0.068  0.000  0.304   -0.269  0.000  0.523
 H         -0.036 -0.169 -0.260    0.048 -0.000 -0.153   -0.084  0.003  0.277
 TransDip  -0.000 -0.016  0.000   -0.025  0.000  0.077   -0.022  0.000  0.031

 Mode:                 4                      5                      6
 Frequency:       212.11                 320.71                 433.56
 Force Cnst:      0.1514                 0.2994                 0.4609
 Red. Mass:       5.7104                 4.9406                 4.1620
 IR Active:          YES                    YES                    YES
 IR Intens:        0.071                 10.084                  0.974
 Raman Active:       YES                    YES                    YES
               X      Y      Z        X      Y      Z        X      Y      Z
 C         -0.005 -0.155  0.051    0.002 -0.019 -0.046   -0.071 -0.021  0.006
 C          0.005 -0.155 -0.051    0.002  0.019 -0.046    0.071 -0.021 -0.006
 C         -0.126 -0.004 -0.024   -0.086 -0.004 -0.109   -0.119 -0.100  0.050
 C          0.073 -0.058  0.045    0.051 -0.004  0.024   -0.070  0.074 -0.001
 C          0.126 -0.004  0.024   -0.086  0.004 -0.109    0.119 -0.100 -0.050
 C         -0.073 -0.058 -0.045    0.051  0.004  0.024    0.070  0.074  0.001
 O         -0.000 -0.050  0.000   -0.039 -0.000 -0.117   -0.000 -0.111 -0.000
 C         -0.071  0.226 -0.052   -0.218 -0.001  0.106   -0.187 -0.019  0.201
 N          0.000  0.010 -0.000    0.005  0.000 -0.009    0.000  0.058  0.000
 O          0.269  0.005 -0.011    0.230  0.067  0.068   -0.049  0.085 -0.039
 C          0.071  0.226  0.052   -0.218  0.001  0.106    0.187 -0.019 -0.200
 O         -0.269  0.005  0.011    0.230 -0.067  0.068    0.048  0.086  0.039
 H          0.040 -0.207  0.067    0.081  0.009 -0.076   -0.020 -0.011 -0.008
 H         -0.040 -0.207 -0.067    0.081 -0.009 -0.076    0.021 -0.011  0.008
 H         -0.326 -0.019 -0.024   -0.081  0.002 -0.095   -0.058 -0.111  0.022
 H          0.326 -0.019  0.024   -0.081 -0.002 -0.095    0.058 -0.111 -0.022
 H         -0.156  0.347 -0.100   -0.397 -0.007  0.399   -0.400  0.054  0.429
 H          0.000  0.064 -0.000    0.021  0.000 -0.044    0.001 -0.035 -0.000
 H          0.156  0.347  0.100   -0.397  0.007  0.399    0.399  0.054 -0.428
 TransDip  -0.000 -0.009 -0.000   -0.102 -0.000  0.000    0.000 -0.032  0.000

 Mode:                 7                      8                      9
 Frequency:       433.90                 529.90                 584.92
 Force Cnst:      0.5387                 0.7238                 0.6726
 Red. Mass:       4.8566                 4.3750                 3.3368
 IR Active:          YES                    YES                    YES
 IR Intens:       19.389                  0.141                  6.740
 Raman Active:       YES                    YES                    YES
               X      Y      Z        X      Y      Z        X      Y      Z
 C          0.127  0.035  0.067    0.022 -0.105  0.167   -0.052 -0.027  0.107
 C          0.127 -0.035  0.067   -0.022 -0.105 -0.167   -0.052  0.027  0.107
 C         -0.010  0.001 -0.083   -0.043 -0.045  0.046   -0.026 -0.018 -0.037
 C          0.097 -0.005  0.091   -0.032  0.097  0.162   -0.086 -0.018  0.150
 C         -0.010 -0.000 -0.083    0.043 -0.045 -0.046   -0.026  0.018 -0.037
 C          0.097  0.005  0.091    0.032  0.097 -0.162   -0.086  0.018  0.150
 O         -0.063  0.000 -0.058    0.000 -0.015 -0.000    0.253 -0.000 -0.102
 C         -0.102 -0.001  0.047    0.047 -0.009 -0.122   -0.013  0.004 -0.049
 N          0.244 -0.000  0.033    0.000  0.114  0.000   -0.062  0.000 -0.038
 O         -0.168 -0.134 -0.092   -0.131  0.019 -0.127    0.019 -0.014 -0.031
 C         -0.103  0.002  0.048   -0.047 -0.009  0.122   -0.013 -0.004 -0.049
 O         -0.168  0.134 -0.093    0.131  0.019  0.127    0.019  0.014 -0.031
 H          0.282  0.046  0.031    0.195 -0.345  0.254    0.125  0.019  0.049
 H          0.282 -0.046  0.031   -0.195 -0.345 -0.254    0.125 -0.019  0.049
 H         -0.017 -0.004 -0.090   -0.160 -0.033  0.086   -0.084 -0.005 -0.002
 H         -0.018  0.005 -0.090    0.160 -0.033 -0.086   -0.084  0.005 -0.002
 H         -0.284 -0.011  0.350    0.107  0.016 -0.257    0.032  0.002 -0.117
 H          0.316  0.000 -0.117    0.000  0.233 -0.000    0.293  0.000 -0.807
 H         -0.286  0.011  0.352   -0.107  0.016  0.257    0.032 -0.002 -0.117
 TransDip   0.126  0.000  0.064    0.000  0.012 -0.000   -0.026  0.000 -0.079

 Mode:                10                     11                     12
 Frequency:       635.15                 636.49                 667.45
 Force Cnst:      0.9480                 2.7793                 0.4240
 Red. Mass:       3.9886                11.6441                 1.6155
 IR Active:          YES                    YES                    YES
 IR Intens:       20.558                  2.836                 55.411
 Raman Active:       YES                    YES                    YES
               X      Y      Z        X      Y      Z        X      Y      Z
 C         -0.130 -0.106 -0.044    0.028 -0.110 -0.019   -0.018 -0.007  0.013
 C          0.130 -0.106  0.044    0.028  0.110 -0.018   -0.018  0.007  0.013
 C         -0.073 -0.019  0.087   -0.013 -0.003  0.025   -0.062 -0.005  0.029
 C         -0.127  0.023 -0.171    0.045 -0.391 -0.078    0.022  0.003  0.021
 C          0.073 -0.019 -0.087   -0.012  0.003  0.025   -0.062  0.005  0.029
 C          0.127  0.023  0.171    0.045  0.391 -0.078    0.022 -0.003  0.021
 O          0.000  0.031 -0.000   -0.011  0.000 -0.000    0.111 -0.000 -0.037
 C          0.045 -0.038 -0.122   -0.013  0.002  0.005   -0.069 -0.000  0.005
 N          0.000 -0.049  0.000   -0.227 -0.000 -0.066    0.096 -0.000 -0.048
 O          0.003  0.132  0.040    0.094 -0.433  0.080    0.002 -0.011 -0.018
 C         -0.045 -0.038  0.122   -0.013 -0.002  0.005   -0.069  0.000  0.005
 O         -0.003  0.132 -0.040    0.094  0.433  0.080    0.002  0.011 -0.018
 H         -0.321 -0.072 -0.026   -0.209  0.032 -0.051    0.008  0.006  0.001
 H          0.321 -0.072  0.026   -0.209 -0.032 -0.051    0.008 -0.006  0.001
 H         -0.150  0.014  0.163   -0.069  0.016  0.075   -0.080  0.010  0.062
 H          0.150  0.014 -0.163   -0.069 -0.016  0.074   -0.080 -0.010  0.062
 H          0.149 -0.035 -0.295    0.017  0.003 -0.048    0.130  0.020 -0.347
 H          0.000 -0.455  0.000   -0.261 -0.000  0.027   -0.277 -0.000  0.761
 H         -0.149 -0.035  0.295    0.017 -0.003 -0.048    0.130 -0.020 -0.347
 TransDip   0.000 -0.145  0.000   -0.048 -0.000 -0.024   -0.125  0.000  0.203

 Mode:                13                     14                     15
 Frequency:       695.61                 696.34                 750.41
 Force Cnst:      0.4481                 2.0707                 1.3533
 Red. Mass:       1.5717                 7.2480                 4.0789
 IR Active:          YES                    YES                    YES
 IR Intens:      130.540                  0.812                  7.495
 Raman Active:       YES                    YES                    YES
               X      Y      Z        X      Y      Z        X      Y      Z
 C         -0.008 -0.008  0.061   -0.129  0.192  0.075   -0.035 -0.004  0.011
 C         -0.008  0.008  0.061    0.129  0.192 -0.075   -0.035  0.004  0.011
 C          0.030  0.003 -0.028   -0.065  0.059 -0.072   -0.066  0.056  0.081
 C         -0.051 -0.007  0.045   -0.250 -0.053  0.270    0.104  0.014 -0.156
 C          0.030 -0.003 -0.028    0.065  0.059  0.072   -0.066 -0.056  0.081
 C         -0.051  0.007  0.045    0.250 -0.053 -0.270    0.104 -0.014 -0.156
 O          0.015 -0.000  0.024    0.000  0.012  0.000    0.195  0.000  0.106
 C          0.055  0.004 -0.071   -0.028 -0.127 -0.044   -0.080  0.009 -0.178
 N         -0.029  0.000 -0.097   -0.000 -0.180 -0.000    0.056 -0.000  0.141
 O          0.013  0.005 -0.022    0.151  0.032 -0.049   -0.026  0.003  0.044
 C          0.055 -0.004 -0.071    0.028 -0.127  0.044   -0.080 -0.009 -0.178
 O          0.013 -0.005 -0.022   -0.151  0.032  0.049   -0.026 -0.003  0.044
 H         -0.000  0.018  0.049    0.031  0.171  0.058   -0.217  0.019  0.034
 H         -0.000 -0.018  0.049   -0.031  0.171 -0.058   -0.217 -0.019  0.034
 H         -0.034 -0.012 -0.050    0.100  0.026 -0.159   -0.223  0.037  0.061
 H         -0.034  0.012 -0.050   -0.100  0.026  0.159   -0.223 -0.037  0.061
 H         -0.230 -0.054  0.476    0.026 -0.151 -0.091   -0.275 -0.148  0.363
 H         -0.316  0.000  0.524   -0.000 -0.505  0.000    0.209 -0.000 -0.187
 H         -0.230  0.054  0.476   -0.026 -0.151  0.091   -0.275  0.148  0.363
 TransDip  -0.231  0.000  0.284   -0.000 -0.029  0.000   -0.087 -0.000 -0.011

 Mode:                16                     17                     18
 Frequency:       806.25                 849.46                 887.42
 Force Cnst:      1.5993                 2.5754                 1.6587
 Red. Mass:       4.1757                 6.0576                 3.5749
 IR Active:          YES                    YES                    YES
 IR Intens:        1.446                  5.638                 20.217
 Raman Active:       YES                    YES                    YES
               X      Y      Z        X      Y      Z        X      Y      Z
 C          0.007 -0.115 -0.029    0.079  0.070 -0.188    0.115  0.109  0.179
 C         -0.007 -0.115  0.029    0.079 -0.070 -0.188    0.115 -0.109  0.179
 C          0.167  0.007 -0.045    0.021  0.188 -0.018    0.086  0.028 -0.070
 C         -0.121  0.021  0.049   -0.071 -0.016  0.161   -0.005 -0.000 -0.116
 C         -0.167  0.007  0.045    0.021 -0.188 -0.018    0.086 -0.028 -0.070
 C          0.121  0.021 -0.049   -0.071  0.016  0.161   -0.005  0.000 -0.116
 O         -0.000 -0.092 -0.000    0.050  0.000  0.357    0.030  0.000  0.036
 C          0.167  0.142  0.134   -0.129  0.007 -0.051   -0.120 -0.003  0.003
 N          0.000 -0.072  0.000   -0.011  0.000 -0.087   -0.159  0.000 -0.018
 O          0.003  0.072 -0.024    0.030 -0.020 -0.031   -0.015  0.031  0.017
 C         -0.167  0.142 -0.134   -0.129 -0.007 -0.051   -0.120  0.003  0.003
 O         -0.003  0.072  0.024    0.030  0.020 -0.031   -0.015 -0.031  0.017
 H          0.038 -0.242  0.028    0.149 -0.212 -0.059    0.067  0.474  0.012
 H         -0.038 -0.242 -0.028    0.149  0.212 -0.059    0.067 -0.474  0.012
 H          0.084 -0.065 -0.169    0.112  0.032 -0.345    0.193 -0.017 -0.174
 H         -0.084 -0.065  0.169    0.112 -0.032 -0.345    0.193  0.017 -0.174
 H          0.237 -0.068  0.347    0.135 -0.220 -0.140    0.032 -0.001 -0.259
 H          0.000 -0.395 -0.000    0.001 -0.000 -0.114   -0.200  0.000  0.057
 H         -0.237 -0.068 -0.347    0.135  0.220 -0.140    0.032  0.001 -0.259
 TransDip   0.000 -0.039  0.000   -0.003 -0.000 -0.076    0.054 -0.000 -0.133

 Mode:                19                     20                     21
 Frequency:       892.31                 925.27                 940.83
 Force Cnst:      2.5514                 0.9706                 0.8169
 Red. Mass:       5.4387                 1.9242                 1.5663
 IR Active:          YES                    YES                    YES
 IR Intens:        4.667                  5.547                  0.136
 Raman Active:       YES                    YES                    YES
               X      Y      Z        X      Y      Z        X      Y      Z
 C          0.046 -0.205 -0.229   -0.039  0.010 -0.045   -0.010 -0.002 -0.075
 C         -0.046 -0.205  0.229    0.039  0.010  0.045    0.010 -0.002  0.075
 C         -0.020  0.078 -0.187   -0.128  0.032  0.010   -0.019 -0.014  0.052
 C         -0.046  0.018  0.088    0.014 -0.014  0.022   -0.012 -0.008  0.050
 C          0.020  0.078  0.187    0.128  0.032 -0.010    0.019 -0.014 -0.052
 C          0.046  0.018 -0.088   -0.014 -0.014 -0.022    0.012 -0.008 -0.050
 O          0.000  0.212  0.000   -0.000 -0.037 -0.000   -0.000 -0.017 -0.000
 C         -0.092 -0.095 -0.034    0.122 -0.005 -0.005   -0.011  0.017  0.109
 N          0.000  0.044  0.000    0.000  0.067 -0.000   -0.000  0.036 -0.000
 O         -0.021  0.024 -0.034    0.001 -0.027 -0.002    0.004 -0.014 -0.010
 C          0.092 -0.095  0.034   -0.122 -0.005  0.005    0.011  0.017 -0.109
 O          0.021  0.024  0.034   -0.001 -0.027  0.002   -0.004 -0.014  0.010
 H          0.295 -0.096 -0.335   -0.025  0.147 -0.116    0.029  0.109 -0.138
 H         -0.295 -0.096  0.335    0.025  0.147  0.116   -0.029  0.109  0.138
 H         -0.012  0.218  0.069   -0.337 -0.005 -0.038   -0.045 -0.010  0.067
 H          0.012  0.218 -0.069    0.337 -0.005  0.038    0.045 -0.010 -0.067
 H         -0.183 -0.076  0.083    0.155 -0.298  0.397    0.382  0.023 -0.527
 H          0.000  0.032  0.000    0.000  0.278  0.000   -0.000  0.155 -0.000
 H          0.183 -0.076 -0.083   -0.155 -0.298 -0.397   -0.382  0.023  0.527
 TransDip   0.000 -0.069 -0.000    0.000 -0.075  0.000   -0.000  0.012  0.000

 Mode:                22                     23                     24
 Frequency:       942.58                 964.01                 964.74
 Force Cnst:      1.6498                 1.4699                 1.3089
 Red. Mass:       3.1518                 2.6845                 2.3869
 IR Active:          YES                    YES                    YES
 IR Intens:       40.182                  0.888                 24.234
 Raman Active:       YES                    YES                    YES
               X      Y      Z        X      Y      Z        X      Y      Z
 C          0.210 -0.037 -0.038    0.100  0.045 -0.097   -0.046 -0.062  0.028
 C          0.210  0.037 -0.038   -0.100  0.045  0.097   -0.046  0.062  0.028
 C         -0.058  0.031  0.150    0.010 -0.113  0.153    0.162  0.077  0.040
 C         -0.036  0.018 -0.007   -0.035  0.008  0.059    0.000  0.005  0.018
 C         -0.058 -0.031  0.150   -0.010 -0.113 -0.153    0.162 -0.077  0.040
 C         -0.036 -0.018 -0.007    0.035  0.008 -0.059    0.000 -0.005  0.018
 O         -0.005  0.000 -0.103   -0.000  0.022 -0.000   -0.044 -0.000 -0.099
 C         -0.021 -0.005 -0.025    0.039  0.050 -0.080   -0.105 -0.012 -0.047
 N         -0.126  0.000 -0.060    0.000 -0.064 -0.000    0.020  0.000  0.002
 O         -0.020  0.035 -0.012    0.013  0.009 -0.011   -0.002  0.000 -0.004
 C         -0.021  0.005 -0.025   -0.039  0.050  0.080   -0.105  0.012 -0.047
 O         -0.020 -0.035 -0.012   -0.013  0.009  0.011   -0.002 -0.000 -0.004
 H          0.361 -0.126 -0.020    0.314  0.219 -0.223   -0.227 -0.365  0.216
 H          0.361  0.126 -0.021   -0.314  0.219  0.223   -0.227  0.365  0.216
 H         -0.163  0.162  0.422   -0.009 -0.035  0.317    0.363  0.166  0.188
 H         -0.163 -0.162  0.422    0.009 -0.035 -0.317    0.363 -0.166  0.189
 H         -0.030 -0.081  0.104   -0.226  0.157  0.176   -0.041 -0.087 -0.056
 H         -0.128 -0.000 -0.069    0.000 -0.198  0.000    0.012  0.000  0.022
 H         -0.030  0.081  0.104    0.226  0.157 -0.176   -0.041  0.087 -0.056
 TransDip  -0.130  0.000  0.156    0.000  0.030  0.000    0.127 -0.000  0.093

 Mode:                25                     26                     27
 Frequency:       996.12                1004.86                1032.85
[...]
 IR Active:          YES                    YES                    YES
 IR Intens:       40.481                 10.396                 12.024
 Raman Active:       YES                    YES                    YES
               X      Y      Z        X      Y      Z        X      Y      Z
 C         -0.115  0.030  0.078   -0.023 -0.047 -0.010    0.017  0.106  0.006
 C          0.115  0.030 -0.078   -0.023  0.047 -0.010    0.017 -0.106  0.006
 C         -0.014 -0.360 -0.170    0.035 -0.098  0.006   -0.072 -0.066  0.039
 C          0.008 -0.007 -0.013   -0.001  0.002  0.005    0.008 -0.001 -0.016
 C          0.014 -0.360  0.170    0.035  0.098  0.006   -0.072  0.066  0.039
 C         -0.008 -0.007  0.013   -0.001 -0.002  0.005    0.008  0.001 -0.016
 O         -0.000  0.391 -0.000   -0.015 -0.000  0.022    0.017 -0.000 -0.040
 C          0.085  0.073  0.056   -0.047 -0.044 -0.019    0.006 -0.030 -0.013
 N          0.000  0.027  0.000    0.011 -0.000  0.004   -0.026 -0.000 -0.007
 O          0.003 -0.009  0.003   -0.002  0.001 -0.002    0.008 -0.014  0.006
 C         -0.085  0.073 -0.056   -0.047  0.044 -0.019    0.006  0.030 -0.013
 O         -0.003 -0.009 -0.003   -0.002 -0.001 -0.002    0.008  0.014  0.006
 H         -0.087  0.232 -0.028    0.138  0.180 -0.158    0.004 -0.379  0.253
 H          0.087  0.232  0.028    0.138 -0.180 -0.158    0.004  0.379  0.253
 H         -0.036 -0.343 -0.119    0.037 -0.075  0.070    0.352 -0.199 -0.263
 H          0.037 -0.343  0.120    0.037  0.075  0.070    0.352  0.199 -0.263
 H          0.143  0.029  0.035    0.309 -0.529  0.130    0.064 -0.153  0.078
 H          0.000  0.137 -0.000    0.013 -0.000  0.002   -0.032 -0.000  0.002
 H         -0.143  0.030 -0.035    0.309  0.529  0.130    0.064  0.153  0.078
 TransDip   0.000 -0.204  0.000    0.101  0.000 -0.019   -0.091  0.000  0.064

 Mode:                31                     32                     33
 Frequency:      1221.23                1248.72                1259.05
 Force Cnst:      1.9001                 1.1597                 1.3824
 Red. Mass:       2.1623                 1.2623                 1.4801
 IR Active:          YES                    YES                    YES
 IR Intens:      100.301                  1.860                  0.396
 Raman Active:       YES                    YES                    YES
               X      Y      Z        X      Y      Z        X      Y      Z
 C          0.044  0.044  0.013    0.060  0.037 -0.022   -0.060 -0.042  0.086
 C         -0.044  0.044 -0.013   -0.060  0.037  0.022    0.060 -0.042 -0.086
 C          0.004 -0.007 -0.007    0.051 -0.019 -0.036    0.064  0.013 -0.045
 C         -0.156 -0.101 -0.096   -0.023 -0.008  0.020   -0.008 -0.011 -0.018
 C         -0.004 -0.007  0.007   -0.051 -0.019  0.036   -0.064  0.013  0.045
 C          0.156 -0.101  0.096    0.023 -0.008 -0.020    0.008 -0.011  0.018
 O          0.000  0.008 -0.000   -0.000 -0.003  0.000    0.000 -0.049  0.000
 C         -0.004  0.003  0.005   -0.004 -0.022  0.015   -0.003  0.000  0.006
 N         -0.000  0.080 -0.000    0.000  0.004  0.000    0.000  0.012 -0.000
 O          0.020  0.003  0.014    0.002  0.004 -0.004   -0.002  0.004  0.001
 C          0.004  0.003 -0.005    0.004 -0.022 -0.015    0.003  0.000 -0.006
 O         -0.020  0.003 -0.014   -0.002  0.004  0.004    0.002  0.004 -0.001
 H          0.396 -0.271  0.100   -0.384 -0.087  0.126    0.202  0.433 -0.195
 H         -0.396 -0.271 -0.100    0.384 -0.087 -0.126   -0.203  0.433  0.195
 H         -0.026  0.013  0.038   -0.505  0.069  0.210   -0.137  0.220  0.377
 H          0.026  0.013 -0.038    0.505  0.069 -0.210    0.137  0.220 -0.377
 H          0.004 -0.002  0.000   -0.077  0.078 -0.025   -0.021  0.023  0.002
 H         -0.000  0.642  0.000    0.000  0.026  0.000    0.000  0.060 -0.000
 H         -0.004 -0.002 -0.000    0.077  0.078  0.025    0.021  0.023 -0.002
 TransDip  -0.000 -0.321  0.000   -0.000 -0.044  0.000   -0.000  0.020 -0.000

 Mode:                34                     35                     36
 Frequency:      1265.72                1308.94                1324.87
 Force Cnst:      1.2588                 1.2892                 1.9576
 Red. Mass:       1.3336                 1.2771                 1.8929
 IR Active:          YES                    YES                    YES
 IR Intens:        6.845                  1.670                 26.491
 Raman Active:       YES                    YES                    YES
               X      Y      Z        X      Y      Z        X      Y      Z
 C         -0.085 -0.016  0.022   -0.019  0.041 -0.029    0.065 -0.142  0.014
 C         -0.085  0.016  0.022    0.019  0.041  0.029    0.066  0.142  0.014
 C         -0.027  0.058 -0.003   -0.034 -0.039 -0.047   -0.089  0.042  0.020
 C          0.017 -0.001 -0.040    0.024  0.013  0.006   -0.048 -0.013 -0.002
 C         -0.027 -0.058 -0.003    0.034 -0.039  0.047   -0.089 -0.042  0.020
 C          0.017  0.001 -0.040   -0.024  0.013 -0.006   -0.048  0.013 -0.002
 O         -0.002  0.000  0.014    0.000 -0.034 -0.000    0.007  0.000 -0.007
 C          0.021  0.004 -0.002   -0.022  0.046 -0.015    0.020 -0.007 -0.001
 N         -0.004  0.000  0.010   -0.000 -0.012 -0.000    0.051 -0.000  0.017
 O          0.003 -0.012  0.008    0.001 -0.007  0.001   -0.005  0.022 -0.006
 C          0.021 -0.004 -0.002    0.022  0.046  0.015    0.020  0.007 -0.001
 O          0.003  0.012  0.008   -0.001 -0.007 -0.001   -0.005 -0.022 -0.006
 H          0.609 -0.037 -0.103   -0.040 -0.251  0.117   -0.241  0.247 -0.126
 H          0.609  0.037 -0.103    0.040 -0.251 -0.117   -0.242 -0.247 -0.126
 H          0.290  0.109  0.040    0.255  0.234  0.449    0.509 -0.054 -0.246
 H          0.290 -0.109  0.040   -0.255  0.234 -0.449    0.509  0.054 -0.246
 H         -0.028  0.054  0.012    0.180 -0.222  0.074   -0.010  0.015  0.023
 H         -0.017  0.000  0.041   -0.000 -0.052 -0.000    0.063 -0.000  0.000
 H         -0.028 -0.054  0.012   -0.180 -0.222 -0.074   -0.009 -0.015  0.023
 TransDip   0.080 -0.000 -0.025    0.000  0.041  0.000   -0.162  0.000 -0.032

 Mode:                37                     38                     39
 Frequency:      1329.40                1368.74                1381.19
 Force Cnst:      1.8851                 2.1100                 5.0224
 Red. Mass:       1.8104                 1.9116                 4.4684
 IR Active:          YES                    YES                    YES
 IR Intens:       18.414                  2.704                135.733
 Raman Active:       YES                    YES                    YES
               X      Y      Z        X      Y      Z        X      Y      Z
 C          0.134 -0.050  0.049    0.063 -0.016  0.020   -0.028 -0.023 -0.020
 C         -0.134 -0.050 -0.049   -0.063 -0.016 -0.020   -0.028  0.023 -0.020
 C         -0.021 -0.009  0.003   -0.105  0.011 -0.048   -0.075  0.001 -0.060
 C         -0.066 -0.031  0.001   -0.022 -0.011 -0.005    0.273  0.122  0.117
 C          0.021 -0.009 -0.003    0.105  0.011  0.048   -0.075 -0.001 -0.060
 C          0.066 -0.031 -0.001    0.022 -0.011  0.005    0.273 -0.122  0.117
 O          0.000  0.005 -0.000    0.000 -0.018 -0.000    0.015 -0.000  0.037
 C         -0.066  0.042 -0.030    0.129 -0.043  0.059    0.023 -0.019  0.003
 N          0.000  0.026  0.000    0.000  0.015  0.000   -0.234  0.000 -0.095
 O          0.000  0.016 -0.005    0.000  0.004 -0.001   -0.045 -0.013 -0.019
 C          0.066  0.042  0.030   -0.129 -0.043 -0.059    0.023  0.019  0.003
 O         -0.000  0.016  0.005   -0.000  0.004  0.001   -0.045  0.013 -0.019
 H         -0.373  0.365 -0.055   -0.179  0.079  0.020   -0.297  0.120 -0.043
 H          0.373  0.365  0.055    0.179  0.079 -0.020   -0.297 -0.120 -0.043
 H          0.218 -0.027 -0.057    0.341  0.154  0.159    0.319  0.192  0.258
 H         -0.218 -0.027  0.056   -0.341  0.154 -0.159    0.319 -0.192  0.258
 H          0.191 -0.299  0.076   -0.222  0.443 -0.100    0.019 -0.026  0.025
 H          0.000  0.105  0.000    0.000  0.014  0.000   -0.263 -0.000 -0.081
 H         -0.191 -0.299 -0.076    0.222  0.443  0.100    0.019  0.026  0.025
 TransDip  -0.000 -0.137 -0.000   -0.000  0.053 -0.000    0.365  0.000  0.079

 Mode:                40                     41                     42
 Frequency:      1393.48                1406.53                1688.20
 Force Cnst:      1.9959                 2.5347                10.2352
 Red. Mass:       1.7446                 2.1745                 6.0954
 IR Active:          YES                    YES                    YES
 IR Intens:       39.451                 74.211                  0.608
 Raman Active:       YES                    YES                    YES
               X      Y      Z        X      Y      Z        X      Y      Z
 C          0.035  0.034  0.012    0.009  0.013  0.006   -0.010 -0.010  0.003
 C          0.035 -0.034  0.012   -0.009  0.013 -0.006   -0.010  0.010  0.003
 C         -0.057 -0.034 -0.114    0.006 -0.002  0.000    0.009  0.061  0.005
 C         -0.066 -0.032 -0.029   -0.042 -0.016 -0.016    0.002 -0.003 -0.001
 C         -0.057  0.035 -0.114   -0.006 -0.002 -0.000    0.009 -0.061  0.005
 C         -0.066  0.032 -0.029    0.042 -0.016  0.016    0.002  0.003 -0.001
 O          0.022 -0.000  0.072   -0.000  0.002 -0.000    0.010  0.000  0.003
 C          0.016 -0.029  0.009   -0.003  0.001 -0.001    0.043 -0.474  0.019
 N          0.055 -0.000  0.023    0.000  0.263  0.000   -0.001  0.000  0.000
 O          0.010  0.006  0.004    0.017 -0.082  0.009   -0.001  0.002  0.000
 C          0.016  0.029  0.009    0.003  0.001  0.001    0.043  0.474  0.019
 O          0.010 -0.006  0.004   -0.017 -0.082 -0.009   -0.001 -0.002  0.000
 H         -0.120 -0.112  0.115    0.056 -0.013  0.009    0.030  0.020 -0.015
 H         -0.120  0.112  0.115   -0.056 -0.013 -0.009    0.030 -0.020 -0.015
 H          0.199  0.317  0.530   -0.014 -0.003  0.003   -0.214 -0.004 -0.113
 H          0.199 -0.317  0.530    0.014 -0.003 -0.003   -0.214  0.004 -0.113
 H          0.035 -0.051  0.011    0.003 -0.007  0.002   -0.404  0.006 -0.214
 H          0.063 -0.000  0.017   -0.000 -0.951 -0.000    0.001 -0.000 -0.001
 H          0.035  0.051  0.011   -0.003 -0.007 -0.002   -0.404 -0.006 -0.214
 TransDip  -0.178  0.000 -0.094   -0.000 -0.276 -0.000    0.007 -0.000 -0.024

 Mode:                43                     44                     45
 Frequency:      1880.08                1921.71                3158.57
 Force Cnst:     20.7828                27.8461                 6.3907
 Red. Mass:       9.9794                12.7979                 1.0872
 IR Active:          YES                    YES                    YES
 IR Intens:      769.967                 80.073                  3.632
 Raman Active:       YES                    YES                    YES
               X      Y      Z        X      Y      Z        X      Y      Z
 C          0.017 -0.040  0.008   -0.033  0.030 -0.010   -0.011 -0.026 -0.053
 C         -0.017 -0.040 -0.008   -0.033 -0.030 -0.010    0.010 -0.026  0.053
 C          0.002  0.003 -0.006   -0.002 -0.003  0.009   -0.000  0.001 -0.001
 C         -0.197  0.464 -0.091    0.198 -0.554  0.090    0.000 -0.000 -0.000
 C         -0.002  0.003  0.006   -0.002  0.003  0.009    0.000  0.001  0.001
 C          0.197  0.464  0.091    0.198  0.554  0.090   -0.000 -0.000  0.000
 O         -0.000 -0.000  0.000    0.001  0.000 -0.005    0.000  0.000  0.000
 C         -0.001 -0.001  0.001    0.002  0.004 -0.003    0.000  0.000  0.000
 N         -0.000 -0.111 -0.000   -0.015 -0.000 -0.005    0.000  0.000 -0.000
 O          0.115 -0.290  0.055   -0.124  0.336 -0.060   -0.000  0.000  0.000
 C          0.001 -0.001 -0.001    0.002 -0.004 -0.003   -0.000  0.000 -0.000
 O         -0.115 -0.290 -0.055   -0.124 -0.336 -0.060    0.000  0.000 -0.000
 H         -0.059  0.046 -0.012    0.075 -0.067 -0.000    0.120  0.305  0.624
 H          0.059  0.046  0.012    0.075  0.067 -0.000   -0.120  0.305 -0.623
 H         -0.029  0.014  0.001    0.030 -0.021 -0.008    0.002 -0.018  0.008
 H          0.029  0.014 -0.001    0.030  0.021 -0.008   -0.002 -0.018 -0.008
 H         -0.003  0.002  0.000    0.001 -0.003  0.011   -0.000 -0.001 -0.001
 H          0.000  0.495  0.000   -0.004  0.000  0.004    0.000 -0.000 -0.000
 H          0.003  0.002 -0.000    0.001  0.003  0.011    0.000 -0.001  0.001
 TransDip   0.000  0.889 -0.000    0.278  0.000  0.070    0.000 -0.061 -0.000

 Mode:                46                     47                     48
 Frequency:      3166.30                3195.02                3197.90
 Force Cnst:      6.4234                 6.5512                 6.5896
 Red. Mass:       1.0874                 1.0892                 1.0937
 IR Active:          YES                    YES                    YES
 IR Intens:        4.293                 17.161                  2.339
 Raman Active:       YES                    YES                    YES
               X      Y      Z        X      Y      Z        X      Y      Z
 C         -0.010 -0.028 -0.052   -0.000 -0.000 -0.001   -0.000 -0.002 -0.004
 C         -0.010  0.028 -0.052    0.000 -0.000  0.001   -0.000  0.002 -0.004
 C         -0.001  0.003 -0.002    0.004 -0.054  0.028    0.004 -0.056  0.028
 C          0.001 -0.001  0.000    0.000 -0.001  0.000    0.000 -0.001  0.000
 C         -0.001 -0.003 -0.002   -0.004 -0.054 -0.028    0.004  0.056  0.028
 C          0.001  0.001  0.000   -0.000 -0.001 -0.000    0.000  0.001  0.000
 O          0.000 -0.000  0.001    0.000  0.000  0.000   -0.000  0.000 -0.000
 C         -0.000  0.000  0.000    0.002  0.003  0.001    0.001  0.003  0.001
 N          0.000 -0.000 -0.000    0.000  0.000  0.000   -0.000  0.000 -0.000
 O         -0.000  0.000 -0.000   -0.000  0.000 -0.000   -0.000  0.000 -0.000
 C         -0.000 -0.000  0.000   -0.002  0.003 -0.001    0.001 -0.003  0.001
 O         -0.000 -0.000 -0.000    0.000  0.000  0.000   -0.000 -0.000 -0.000
 H          0.120  0.310  0.619    0.002  0.008  0.018    0.007  0.021  0.044
 H          0.120 -0.310  0.620   -0.002  0.008 -0.018    0.007 -0.021  0.044
 H          0.004 -0.045  0.022   -0.042  0.623 -0.322   -0.042  0.623 -0.322
 H          0.004  0.045  0.022    0.042  0.624  0.322   -0.042 -0.622 -0.322
 H          0.001 -0.000 -0.000   -0.023 -0.025 -0.015   -0.020 -0.024 -0.013
 H          0.001  0.000 -0.001   -0.000 -0.000  0.000    0.000 -0.000 -0.000
 H          0.001  0.000 -0.000    0.023 -0.025  0.015   -0.020  0.024 -0.013
 TransDip   0.014  0.000 -0.065    0.000 -0.133 -0.000   -0.009 -0.000  0.048

 Mode:                49                     50                     51
 Frequency:      3264.77                3288.78                3672.94
 Force Cnst:      6.8303                 7.0706                 8.5779
 Red. Mass:       1.0876                 1.1095                 1.0792
 IR Active:          YES                    YES                    YES
 IR Intens:        1.415                  4.910                 65.851
 Raman Active:       YES                    YES                    YES
               X      Y      Z        X      Y      Z        X      Y      Z
 C          0.000 -0.000  0.000    0.000 -0.000 -0.000    0.000  0.000  0.000
 C         -0.000 -0.000 -0.000    0.000  0.000 -0.000    0.000 -0.000  0.000
 C         -0.001  0.003 -0.002    0.002 -0.003  0.002   -0.000 -0.000 -0.000
 C         -0.000  0.000 -0.000    0.000 -0.000  0.000    0.001  0.002  0.000
 C          0.001  0.003  0.002    0.002  0.003  0.002   -0.000  0.000 -0.000
 C          0.000  0.000  0.000    0.000  0.000  0.000    0.001 -0.002  0.000
 O          0.000 -0.000  0.000    0.001  0.000  0.001    0.000 -0.000 -0.000
 C          0.040  0.037  0.025   -0.041 -0.048 -0.025   -0.000  0.000  0.000
 N         -0.000  0.000  0.000   -0.000 -0.000  0.000   -0.067  0.000 -0.031
 O          0.000 -0.000  0.000   -0.000  0.000 -0.000   -0.000  0.000 -0.000
 C         -0.040  0.037 -0.025   -0.041  0.048 -0.025   -0.000 -0.000  0.000
 O         -0.000 -0.000 -0.000   -0.000 -0.000 -0.000   -0.000 -0.000 -0.000
 H          0.000 -0.001 -0.002   -0.000  0.001  0.002   -0.000 -0.000  0.000
 H         -0.000 -0.001  0.002   -0.000 -0.001  0.002   -0.000  0.000  0.000
 H          0.004 -0.032  0.018   -0.006  0.028 -0.016   -0.000 -0.000  0.000
 H         -0.004 -0.032 -0.018   -0.006 -0.028 -0.016   -0.000  0.000  0.000
 H         -0.465 -0.441 -0.290    0.462  0.444  0.289    0.000  0.000  0.000
 H         -0.000  0.000 -0.000   -0.000 -0.000 -0.000    0.905 -0.000  0.419
 H          0.465 -0.441  0.290    0.462 -0.444  0.289    0.000 -0.000  0.000
 TransDip  -0.000  0.038 -0.000   -0.069 -0.000 -0.016    0.239 -0.000  0.103

 STANDARD THERMODYNAMIC QUANTITIES AT   298.15 K  AND     1.00 ATM

   This Molecule has  0 Imaginary Frequencies
   Zero point vibrational energy:       92.325 kcal/mol

   Atom    1 Element C  Has Mass   12.00000
   Atom    2 Element C  Has Mass   12.00000
   Atom    3 Element C  Has Mass   12.00000
   Atom    4 Element C  Has Mass   12.00000
   Atom    5 Element C  Has Mass   12.00000
   Atom    6 Element C  Has Mass   12.00000
   Atom    7 Element O  Has Mass   15.99491
   Atom    8 Element C  Has Mass   12.00000
   Atom    9 Element N  Has Mass   14.00307
   Atom   10 Element O  Has Mass   15.99491
   Atom   11 Element C  Has Mass   12.00000
   Atom   12 Element O  Has Mass   15.99491
   Atom   13 Element H  Has Mass    1.00783
   Atom   14 Element H  Has Mass    1.00783
   Atom   15 Element H  Has Mass    1.00783
   Atom   16 Element H  Has Mass    1.00783
   Atom   17 Element H  Has Mass    1.00783
   Atom   18 Element H  Has Mass    1.00783
   Atom   19 Element H  Has Mass    1.00783
   Molecular Mass:   165.042610 amu
   Principal axes and moments of inertia in amu*Bohr^2:
                             1           2           3
    Eigenvalues --     1140.14560  1695.05270  2464.75469
          X               0.99990    -0.00000     0.01393
          Y               0.00000     1.00000    -0.00000
          Z              -0.01393     0.00000     0.99990
   Rotational Symmetry Number is   1
   The Molecule is an Asymmetric Top
   Translational Enthalpy:        0.889 kcal/mol
   Rotational Enthalpy:           0.889 kcal/mol
   Vibrational Enthalpy:         95.702 kcal/mol
   gas constant (RT):             0.592 kcal/mol
   Translational Entropy:        41.211  cal/mol.K
   Rotational Entropy:           29.944  cal/mol.K
   Vibrational Entropy:          18.939  cal/mol.K

   Total Enthalpy:               98.072 kcal/mol
   Total Entropy:                90.095  cal/mol.K
Archival summary:
1\1\nid11390\FREQ\ProcedureUnspecified\6-31G*\3187\ewcss\FriJul612:05:372018FriJul612:05:372018\0\\#,FREQ,ProcedureUnspecified,6-31G*,\\0,1\O\C,1,1.42431\H,2,1.08846,1,111.253\C,1,1.42432,2,96.6609,3,-177.349,0\H,4,1.08846,1,111.252,2,177.35,0\C,4,1.52116,1,102.362,2,49.5126,0\H,6,1.08238,4,125.531,1,153.66,0\C,6,1.33165,4,105.173,1,-31.5946,0\H,8,1.08238,6,129.052,4,-174.495,0\C,4,1.56641,1,100.677,2,-60.153,0\H,10,1.09105,4,113.117,1,160.641,0\C,10,1.5222,4,111.038,1,-75.0546,0\O,12,1.20677,10,127.238,4,-69.7552,0\N,12,1.38772,10,107.383,4,109.474,0\H,14,1.01154,12,122.394,10,-175.744,0\C,14,1.38772,12,114.864,10,-2.37535,0\O,16,1.20677,14,125.374,12,-176.873,0\C,16,1.5222,14,107.383,12,2.37557,0\H,18,1.09105,16,110.051,14,124.499,0\\\@

 Total job time:  2480.33s(wall), 69056.31s(cpu) 
 Fri Jul  6 12:05:37 2018

        *************************************************************
        *                                                           *
        *  Thank you very much for using Q-Chem.  Have a nice day.  *
        *                                                           *
        *************************************************************


0 sent ACK to 0 
now end server 0 ... 
cleanup process ... done
